
Predictions were generated on 22-May-2026 at 09:04:20 using AeroDyn_driver
 AeroDyn



	Time        	RtAeroCp    	RtAeroCq    	RtAeroCt    	RtAeroFxh   	RtAeroFyh   	RtAeroFzh   	RtAeroMxh   	RtAeroMyh   	RtAeroMzh   	RtAeroPwr   	RtAeroFxi   	RtAeroFyi   	RtAeroFzi   	RtAeroMxi   	RtAeroMyi   	RtAeroMzi   	RtArea      	RtSkew      	RtSpeed     	RtTSR       	RtVAvgxh    	RtVAvgyh    	RtVAvgzh    	B1Pitch     	B2Pitch     	B3Pitch     	B1Azimuth   	B2Azimuth   	B3Azimuth   	B1AeroFx    	B1AeroFy    	B1AeroFz    	B1AeroMx    	B1AeroMy    	B1AeroMz    	B1AeroPwr   	B1AeroFxi   	B1AeroFyi   	B1AeroFzi   	B1AeroMxi   	B1AeroMyi   	B1AeroMzi   	B2AeroFx    	B2AeroFy    	B2AeroFz    	B2AeroMx    	B2AeroMy    	B2AeroMz    	B2AeroPwr   	B2AeroFxi   	B2AeroFyi   	B2AeroFzi   	B2AeroMxi   	B2AeroMyi   	B2AeroMzi   	B3AeroFx    	B3AeroFy    	B3AeroFz    	B3AeroMx    	B3AeroMy    	B3AeroMz    	B3AeroPwr   	B3AeroFxi   	B3AeroFyi   	B3AeroFzi   	B3AeroMxi   	B3AeroMyi   	B3AeroMzi   	B4AeroFx    	B4AeroFy    	B4AeroFz    	B4AeroMx    	B4AeroMy    	B4AeroMz    	B4AeroPwr   	B4AeroFxi   	B4AeroFyi   	B4AeroFzi   	B4AeroMxi   	B4AeroMyi   	B4AeroMzi   	AB1N001Alpha	AB1N002Alpha	AB1N003Alpha	AB1N004Alpha	AB1N005Alpha	AB1N006Alpha	AB1N007Alpha	AB1N008Alpha	AB1N009Alpha	AB1N010Alpha	AB2N001Alpha	AB2N002Alpha	AB2N003Alpha	AB2N004Alpha	AB2N005Alpha	AB2N006Alpha	AB2N007Alpha	AB2N008Alpha	AB2N009Alpha	AB2N010Alpha	AB3N001Alpha	AB3N002Alpha	AB3N003Alpha	AB3N004Alpha	AB3N005Alpha	AB3N006Alpha	AB3N007Alpha	AB3N008Alpha	AB3N009Alpha	AB3N010Alpha	AB4N001Alpha	AB4N002Alpha	AB4N003Alpha	AB4N004Alpha	AB4N005Alpha	AB4N006Alpha	AB4N007Alpha	AB4N008Alpha	AB4N009Alpha	AB4N010Alpha	AB5N001Alpha	AB5N002Alpha	AB5N003Alpha	AB5N004Alpha	AB5N005Alpha	AB5N006Alpha	AB5N007Alpha	AB5N008Alpha	AB5N009Alpha	AB5N010Alpha	AB6N001Alpha	AB6N002Alpha	AB6N003Alpha	AB6N004Alpha	AB6N005Alpha	AB6N006Alpha	AB6N007Alpha	AB6N008Alpha	AB6N009Alpha	AB6N010Alpha	AB7N001Alpha	AB7N002Alpha	AB7N003Alpha	AB7N004Alpha	AB7N005Alpha	AB7N006Alpha	AB7N007Alpha	AB7N008Alpha	AB7N009Alpha	AB7N010Alpha	AB8N001Alpha	AB8N002Alpha	AB8N003Alpha	AB8N004Alpha	AB8N005Alpha	AB8N006Alpha	AB8N007Alpha	AB8N008Alpha	AB8N009Alpha	AB8N010Alpha	AB9N001Alpha	AB9N002Alpha	AB9N003Alpha	AB9N004Alpha	AB9N005Alpha	AB9N006Alpha	AB9N007Alpha	AB9N008Alpha	AB9N009Alpha	AB9N010Alpha	AB1N001Cl   	AB1N002Cl   	AB1N003Cl   	AB1N004Cl   	AB1N005Cl   	AB1N006Cl   	AB1N007Cl   	AB1N008Cl   	AB1N009Cl   	AB1N010Cl   	AB2N001Cl   	AB2N002Cl   	AB2N003Cl   	AB2N004Cl   	AB2N005Cl   	AB2N006Cl   	AB2N007Cl   	AB2N008Cl   	AB2N009Cl   	AB2N010Cl   	AB3N001Cl   	AB3N002Cl   	AB3N003Cl   	AB3N004Cl   	AB3N005Cl   	AB3N006Cl   	AB3N007Cl   	AB3N008Cl   	AB3N009Cl   	AB3N010Cl   	AB4N001Cl   	AB4N002Cl   	AB4N003Cl   	AB4N004Cl   	AB4N005Cl   	AB4N006Cl   	AB4N007Cl   	AB4N008Cl   	AB4N009Cl   	AB4N010Cl   	AB5N001Cl   	AB5N002Cl   	AB5N003Cl   	AB5N004Cl   	AB5N005Cl   	AB5N006Cl   	AB5N007Cl   	AB5N008Cl   	AB5N009Cl   	AB5N010Cl   	AB6N001Cl   	AB6N002Cl   	AB6N003Cl   	AB6N004Cl   	AB6N005Cl   	AB6N006Cl   	AB6N007Cl   	AB6N008Cl   	AB6N009Cl   	AB6N010Cl   	AB7N001Cl   	AB7N002Cl   	AB7N003Cl   	AB7N004Cl   	AB7N005Cl   	AB7N006Cl   	AB7N007Cl   	AB7N008Cl   	AB7N009Cl   	AB7N010Cl   	AB8N001Cl   	AB8N002Cl   	AB8N003Cl   	AB8N004Cl   	AB8N005Cl   	AB8N006Cl   	AB8N007Cl   	AB8N008Cl   	AB8N009Cl   	AB8N010Cl   	AB9N001Cl   	AB9N002Cl   	AB9N003Cl   	AB9N004Cl   	AB9N005Cl   	AB9N006Cl   	AB9N007Cl   	AB9N008Cl   	AB9N009Cl   	AB9N010Cl   	AB1N001Cd   	AB1N002Cd   	AB1N003Cd   	AB1N004Cd   	AB1N005Cd   	AB1N006Cd   	AB1N007Cd   	AB1N008Cd   	AB1N009Cd   	AB1N010Cd   	AB2N001Cd   	AB2N002Cd   	AB2N003Cd   	AB2N004Cd   	AB2N005Cd   	AB2N006Cd   	AB2N007Cd   	AB2N008Cd   	AB2N009Cd   	AB2N010Cd   	AB3N001Cd   	AB3N002Cd   	AB3N003Cd   	AB3N004Cd   	AB3N005Cd   	AB3N006Cd   	AB3N007Cd   	AB3N008Cd   	AB3N009Cd   	AB3N010Cd   	AB4N001Cd   	AB4N002Cd   	AB4N003Cd   	AB4N004Cd   	AB4N005Cd   	AB4N006Cd   	AB4N007Cd   	AB4N008Cd   	AB4N009Cd   	AB4N010Cd   	AB5N001Cd   	AB5N002Cd   	AB5N003Cd   	AB5N004Cd   	AB5N005Cd   	AB5N006Cd   	AB5N007Cd   	AB5N008Cd   	AB5N009Cd   	AB5N010Cd   	AB6N001Cd   	AB6N002Cd   	AB6N003Cd   	AB6N004Cd   	AB6N005Cd   	AB6N006Cd   	AB6N007Cd   	AB6N008Cd   	AB6N009Cd   	AB6N010Cd   	AB7N001Cd   	AB7N002Cd   	AB7N003Cd   	AB7N004Cd   	AB7N005Cd   	AB7N006Cd   	AB7N007Cd   	AB7N008Cd   	AB7N009Cd   	AB7N010Cd   	AB8N001Cd   	AB8N002Cd   	AB8N003Cd   	AB8N004Cd   	AB8N005Cd   	AB8N006Cd   	AB8N007Cd   	AB8N008Cd   	AB8N009Cd   	AB8N010Cd   	AB9N001Cd   	AB9N002Cd   	AB9N003Cd   	AB9N004Cd   	AB9N005Cd   	AB9N006Cd   	AB9N007Cd   	AB9N008Cd   	AB9N009Cd   	AB9N010Cd   	AB1N001Cm   	AB1N002Cm   	AB1N003Cm   	AB1N004Cm   	AB1N005Cm   	AB1N006Cm   	AB1N007Cm   	AB1N008Cm   	AB1N009Cm   	AB1N010Cm   	AB2N001Cm   	AB2N002Cm   	AB2N003Cm   	AB2N004Cm   	AB2N005Cm   	AB2N006Cm   	AB2N007Cm   	AB2N008Cm   	AB2N009Cm   	AB2N010Cm   	AB3N001Cm   	AB3N002Cm   	AB3N003Cm   	AB3N004Cm   	AB3N005Cm   	AB3N006Cm   	AB3N007Cm   	AB3N008Cm   	AB3N009Cm   	AB3N010Cm   	AB4N001Cm   	AB4N002Cm   	AB4N003Cm   	AB4N004Cm   	AB4N005Cm   	AB4N006Cm   	AB4N007Cm   	AB4N008Cm   	AB4N009Cm   	AB4N010Cm   	AB5N001Cm   	AB5N002Cm   	AB5N003Cm   	AB5N004Cm   	AB5N005Cm   	AB5N006Cm   	AB5N007Cm   	AB5N008Cm   	AB5N009Cm   	AB5N010Cm   	AB6N001Cm   	AB6N002Cm   	AB6N003Cm   	AB6N004Cm   	AB6N005Cm   	AB6N006Cm   	AB6N007Cm   	AB6N008Cm   	AB6N009Cm   	AB6N010Cm   	AB7N001Cm   	AB7N002Cm   	AB7N003Cm   	AB7N004Cm   	AB7N005Cm   	AB7N006Cm   	AB7N007Cm   	AB7N008Cm   	AB7N009Cm   	AB7N010Cm   	AB8N001Cm   	AB8N002Cm   	AB8N003Cm   	AB8N004Cm   	AB8N005Cm   	AB8N006Cm   	AB8N007Cm   	AB8N008Cm   	AB8N009Cm   	AB8N010Cm   	AB9N001Cm   	AB9N002Cm   	AB9N003Cm   	AB9N004Cm   	AB9N005Cm   	AB9N006Cm   	AB9N007Cm   	AB9N008Cm   	AB9N009Cm   	AB9N010Cm   	AB1N001Fx   	AB1N002Fx   	AB1N003Fx   	AB1N004Fx   	AB1N005Fx   	AB1N006Fx   	AB1N007Fx   	AB1N008Fx   	AB1N009Fx   	AB1N010Fx   	AB2N001Fx   	AB2N002Fx   	AB2N003Fx   	AB2N004Fx   	AB2N005Fx   	AB2N006Fx   	AB2N007Fx   	AB2N008Fx   	AB2N009Fx   	AB2N010Fx   	AB3N001Fx   	AB3N002Fx   	AB3N003Fx   	AB3N004Fx   	AB3N005Fx   	AB3N006Fx   	AB3N007Fx   	AB3N008Fx   	AB3N009Fx   	AB3N010Fx   	AB4N001Fx   	AB4N002Fx   	AB4N003Fx   	AB4N004Fx   	AB4N005Fx   	AB4N006Fx   	AB4N007Fx   	AB4N008Fx   	AB4N009Fx   	AB4N010Fx   	AB5N001Fx   	AB5N002Fx   	AB5N003Fx   	AB5N004Fx   	AB5N005Fx   	AB5N006Fx   	AB5N007Fx   	AB5N008Fx   	AB5N009Fx   	AB5N010Fx   	AB6N001Fx   	AB6N002Fx   	AB6N003Fx   	AB6N004Fx   	AB6N005Fx   	AB6N006Fx   	AB6N007Fx   	AB6N008Fx   	AB6N009Fx   	AB6N010Fx   	AB7N001Fx   	AB7N002Fx   	AB7N003Fx   	AB7N004Fx   	AB7N005Fx   	AB7N006Fx   	AB7N007Fx   	AB7N008Fx   	AB7N009Fx   	AB7N010Fx   	AB8N001Fx   	AB8N002Fx   	AB8N003Fx   	AB8N004Fx   	AB8N005Fx   	AB8N006Fx   	AB8N007Fx   	AB8N008Fx   	AB8N009Fx   	AB8N010Fx   	AB9N001Fx   	AB9N002Fx   	AB9N003Fx   	AB9N004Fx   	AB9N005Fx   	AB9N006Fx   	AB9N007Fx   	AB9N008Fx   	AB9N009Fx   	AB9N010Fx   	AB1N001Fy   	AB1N002Fy   	AB1N003Fy   	AB1N004Fy   	AB1N005Fy   	AB1N006Fy   	AB1N007Fy   	AB1N008Fy   	AB1N009Fy   	AB1N010Fy   	AB2N001Fy   	AB2N002Fy   	AB2N003Fy   	AB2N004Fy   	AB2N005Fy   	AB2N006Fy   	AB2N007Fy   	AB2N008Fy   	AB2N009Fy   	AB2N010Fy   	AB3N001Fy   	AB3N002Fy   	AB3N003Fy   	AB3N004Fy   	AB3N005Fy   	AB3N006Fy   	AB3N007Fy   	AB3N008Fy   	AB3N009Fy   	AB3N010Fy   	AB4N001Fy   	AB4N002Fy   	AB4N003Fy   	AB4N004Fy   	AB4N005Fy   	AB4N006Fy   	AB4N007Fy   	AB4N008Fy   	AB4N009Fy   	AB4N010Fy   	AB5N001Fy   	AB5N002Fy   	AB5N003Fy   	AB5N004Fy   	AB5N005Fy   	AB5N006Fy   	AB5N007Fy   	AB5N008Fy   	AB5N009Fy   	AB5N010Fy   	AB6N001Fy   	AB6N002Fy   	AB6N003Fy   	AB6N004Fy   	AB6N005Fy   	AB6N006Fy   	AB6N007Fy   	AB6N008Fy   	AB6N009Fy   	AB6N010Fy   	AB7N001Fy   	AB7N002Fy   	AB7N003Fy   	AB7N004Fy   	AB7N005Fy   	AB7N006Fy   	AB7N007Fy   	AB7N008Fy   	AB7N009Fy   	AB7N010Fy   	AB8N001Fy   	AB8N002Fy   	AB8N003Fy   	AB8N004Fy   	AB8N005Fy   	AB8N006Fy   	AB8N007Fy   	AB8N008Fy   	AB8N009Fy   	AB8N010Fy   	AB9N001Fy   	AB9N002Fy   	AB9N003Fy   	AB9N004Fy   	AB9N005Fy   	AB9N006Fy   	AB9N007Fy   	AB9N008Fy   	AB9N009Fy   	AB9N010Fy   	AB1N001Vx   	AB1N002Vx   	AB1N003Vx   	AB1N004Vx   	AB1N005Vx   	AB1N006Vx   	AB1N007Vx   	AB1N008Vx   	AB1N009Vx   	AB1N010Vx   	AB2N001Vx   	AB2N002Vx   	AB2N003Vx   	AB2N004Vx   	AB2N005Vx   	AB2N006Vx   	AB2N007Vx   	AB2N008Vx   	AB2N009Vx   	AB2N010Vx   	AB3N001Vx   	AB3N002Vx   	AB3N003Vx   	AB3N004Vx   	AB3N005Vx   	AB3N006Vx   	AB3N007Vx   	AB3N008Vx   	AB3N009Vx   	AB3N010Vx   	AB4N001Vx   	AB4N002Vx   	AB4N003Vx   	AB4N004Vx   	AB4N005Vx   	AB4N006Vx   	AB4N007Vx   	AB4N008Vx   	AB4N009Vx   	AB4N010Vx   	AB5N001Vx   	AB5N002Vx   	AB5N003Vx   	AB5N004Vx   	AB5N005Vx   	AB5N006Vx   	AB5N007Vx   	AB5N008Vx   	AB5N009Vx   	AB5N010Vx   	AB6N001Vx   	AB6N002Vx   	AB6N003Vx   	AB6N004Vx   	AB6N005Vx   	AB6N006Vx   	AB6N007Vx   	AB6N008Vx   	AB6N009Vx   	AB6N010Vx   	AB7N001Vx   	AB7N002Vx   	AB7N003Vx   	AB7N004Vx   	AB7N005Vx   	AB7N006Vx   	AB7N007Vx   	AB7N008Vx   	AB7N009Vx   	AB7N010Vx   	AB8N001Vx   	AB8N002Vx   	AB8N003Vx   	AB8N004Vx   	AB8N005Vx   	AB8N006Vx   	AB8N007Vx   	AB8N008Vx   	AB8N009Vx   	AB8N010Vx   	AB9N001Vx   	AB9N002Vx   	AB9N003Vx   	AB9N004Vx   	AB9N005Vx   	AB9N006Vx   	AB9N007Vx   	AB9N008Vx   	AB9N009Vx   	AB9N010Vx   	AB1N001Vy   	AB1N002Vy   	AB1N003Vy   	AB1N004Vy   	AB1N005Vy   	AB1N006Vy   	AB1N007Vy   	AB1N008Vy   	AB1N009Vy   	AB1N010Vy   	AB2N001Vy   	AB2N002Vy   	AB2N003Vy   	AB2N004Vy   	AB2N005Vy   	AB2N006Vy   	AB2N007Vy   	AB2N008Vy   	AB2N009Vy   	AB2N010Vy   	AB3N001Vy   	AB3N002Vy   	AB3N003Vy   	AB3N004Vy   	AB3N005Vy   	AB3N006Vy   	AB3N007Vy   	AB3N008Vy   	AB3N009Vy   	AB3N010Vy   	AB4N001Vy   	AB4N002Vy   	AB4N003Vy   	AB4N004Vy   	AB4N005Vy   	AB4N006Vy   	AB4N007Vy   	AB4N008Vy   	AB4N009Vy   	AB4N010Vy   	AB5N001Vy   	AB5N002Vy   	AB5N003Vy   	AB5N004Vy   	AB5N005Vy   	AB5N006Vy   	AB5N007Vy   	AB5N008Vy   	AB5N009Vy   	AB5N010Vy   	AB6N001Vy   	AB6N002Vy   	AB6N003Vy   	AB6N004Vy   	AB6N005Vy   	AB6N006Vy   	AB6N007Vy   	AB6N008Vy   	AB6N009Vy   	AB6N010Vy   	AB7N001Vy   	AB7N002Vy   	AB7N003Vy   	AB7N004Vy   	AB7N005Vy   	AB7N006Vy   	AB7N007Vy   	AB7N008Vy   	AB7N009Vy   	AB7N010Vy   	AB8N001Vy   	AB8N002Vy   	AB8N003Vy   	AB8N004Vy   	AB8N005Vy   	AB8N006Vy   	AB8N007Vy   	AB8N008Vy   	AB8N009Vy   	AB8N010Vy   	AB9N001Vy   	AB9N002Vy   	AB9N003Vy   	AB9N004Vy   	AB9N005Vy   	AB9N006Vy   	AB9N007Vy   	AB9N008Vy   	AB9N009Vy   	AB9N010Vy   	AB1N001VUndx	AB1N002VUndx	AB1N003VUndx	AB1N004VUndx	AB1N005VUndx	AB1N006VUndx	AB1N007VUndx	AB1N008VUndx	AB1N009VUndx	AB1N010VUndx	AB2N001VUndx	AB2N002VUndx	AB2N003VUndx	AB2N004VUndx	AB2N005VUndx	AB2N006VUndx	AB2N007VUndx	AB2N008VUndx	AB2N009VUndx	AB2N010VUndx	AB3N001VUndx	AB3N002VUndx	AB3N003VUndx	AB3N004VUndx	AB3N005VUndx	AB3N006VUndx	AB3N007VUndx	AB3N008VUndx	AB3N009VUndx	AB3N010VUndx	AB4N001VUndx	AB4N002VUndx	AB4N003VUndx	AB4N004VUndx	AB4N005VUndx	AB4N006VUndx	AB4N007VUndx	AB4N008VUndx	AB4N009VUndx	AB4N010VUndx	AB5N001VUndx	AB5N002VUndx	AB5N003VUndx	AB5N004VUndx	AB5N005VUndx	AB5N006VUndx	AB5N007VUndx	AB5N008VUndx	AB5N009VUndx	AB5N010VUndx	AB6N001VUndx	AB6N002VUndx	AB6N003VUndx	AB6N004VUndx	AB6N005VUndx	AB6N006VUndx	AB6N007VUndx	AB6N008VUndx	AB6N009VUndx	AB6N010VUndx	AB7N001VUndx	AB7N002VUndx	AB7N003VUndx	AB7N004VUndx	AB7N005VUndx	AB7N006VUndx	AB7N007VUndx	AB7N008VUndx	AB7N009VUndx	AB7N010VUndx	AB8N001VUndx	AB8N002VUndx	AB8N003VUndx	AB8N004VUndx	AB8N005VUndx	AB8N006VUndx	AB8N007VUndx	AB8N008VUndx	AB8N009VUndx	AB8N010VUndx	AB9N001VUndx	AB9N002VUndx	AB9N003VUndx	AB9N004VUndx	AB9N005VUndx	AB9N006VUndx	AB9N007VUndx	AB9N008VUndx	AB9N009VUndx	AB9N010VUndx	AB1N001VUndy	AB1N002VUndy	AB1N003VUndy	AB1N004VUndy	AB1N005VUndy	AB1N006VUndy	AB1N007VUndy	AB1N008VUndy	AB1N009VUndy	AB1N010VUndy	AB2N001VUndy	AB2N002VUndy	AB2N003VUndy	AB2N004VUndy	AB2N005VUndy	AB2N006VUndy	AB2N007VUndy	AB2N008VUndy	AB2N009VUndy	AB2N010VUndy	AB3N001VUndy	AB3N002VUndy	AB3N003VUndy	AB3N004VUndy	AB3N005VUndy	AB3N006VUndy	AB3N007VUndy	AB3N008VUndy	AB3N009VUndy	AB3N010VUndy	AB4N001VUndy	AB4N002VUndy	AB4N003VUndy	AB4N004VUndy	AB4N005VUndy	AB4N006VUndy	AB4N007VUndy	AB4N008VUndy	AB4N009VUndy	AB4N010VUndy	AB5N001VUndy	AB5N002VUndy	AB5N003VUndy	AB5N004VUndy	AB5N005VUndy	AB5N006VUndy	AB5N007VUndy	AB5N008VUndy	AB5N009VUndy	AB5N010VUndy	AB6N001VUndy	AB6N002VUndy	AB6N003VUndy	AB6N004VUndy	AB6N005VUndy	AB6N006VUndy	AB6N007VUndy	AB6N008VUndy	AB6N009VUndy	AB6N010VUndy	AB7N001VUndy	AB7N002VUndy	AB7N003VUndy	AB7N004VUndy	AB7N005VUndy	AB7N006VUndy	AB7N007VUndy	AB7N008VUndy	AB7N009VUndy	AB7N010VUndy	AB8N001VUndy	AB8N002VUndy	AB8N003VUndy	AB8N004VUndy	AB8N005VUndy	AB8N006VUndy	AB8N007VUndy	AB8N008VUndy	AB8N009VUndy	AB8N010VUndy	AB9N001VUndy	AB9N002VUndy	AB9N003VUndy	AB9N004VUndy	AB9N005VUndy	AB9N006VUndy	AB9N007VUndy	AB9N008VUndy	AB9N009VUndy	AB9N010VUndy	AB1N001VUndz	AB1N002VUndz	AB1N003VUndz	AB1N004VUndz	AB1N005VUndz	AB1N006VUndz	AB1N007VUndz	AB1N008VUndz	AB1N009VUndz	AB1N010VUndz	AB2N001VUndz	AB2N002VUndz	AB2N003VUndz	AB2N004VUndz	AB2N005VUndz	AB2N006VUndz	AB2N007VUndz	AB2N008VUndz	AB2N009VUndz	AB2N010VUndz	AB3N001VUndz	AB3N002VUndz	AB3N003VUndz	AB3N004VUndz	AB3N005VUndz	AB3N006VUndz	AB3N007VUndz	AB3N008VUndz	AB3N009VUndz	AB3N010VUndz	AB4N001VUndz	AB4N002VUndz	AB4N003VUndz	AB4N004VUndz	AB4N005VUndz	AB4N006VUndz	AB4N007VUndz	AB4N008VUndz	AB4N009VUndz	AB4N010VUndz	AB5N001VUndz	AB5N002VUndz	AB5N003VUndz	AB5N004VUndz	AB5N005VUndz	AB5N006VUndz	AB5N007VUndz	AB5N008VUndz	AB5N009VUndz	AB5N010VUndz	AB6N001VUndz	AB6N002VUndz	AB6N003VUndz	AB6N004VUndz	AB6N005VUndz	AB6N006VUndz	AB6N007VUndz	AB6N008VUndz	AB6N009VUndz	AB6N010VUndz	AB7N001VUndz	AB7N002VUndz	AB7N003VUndz	AB7N004VUndz	AB7N005VUndz	AB7N006VUndz	AB7N007VUndz	AB7N008VUndz	AB7N009VUndz	AB7N010VUndz	AB8N001VUndz	AB8N002VUndz	AB8N003VUndz	AB8N004VUndz	AB8N005VUndz	AB8N006VUndz	AB8N007VUndz	AB8N008VUndz	AB8N009VUndz	AB8N010VUndz	AB9N001VUndz	AB9N002VUndz	AB9N003VUndz	AB9N004VUndz	AB9N005VUndz	AB9N006VUndz	AB9N007VUndz	AB9N008VUndz	AB9N009VUndz	AB9N010VUndz	AB1N001VDisx	AB1N002VDisx	AB1N003VDisx	AB1N004VDisx	AB1N005VDisx	AB1N006VDisx	AB1N007VDisx	AB1N008VDisx	AB1N009VDisx	AB1N010VDisx	AB2N001VDisx	AB2N002VDisx	AB2N003VDisx	AB2N004VDisx	AB2N005VDisx	AB2N006VDisx	AB2N007VDisx	AB2N008VDisx	AB2N009VDisx	AB2N010VDisx	AB3N001VDisx	AB3N002VDisx	AB3N003VDisx	AB3N004VDisx	AB3N005VDisx	AB3N006VDisx	AB3N007VDisx	AB3N008VDisx	AB3N009VDisx	AB3N010VDisx	AB4N001VDisx	AB4N002VDisx	AB4N003VDisx	AB4N004VDisx	AB4N005VDisx	AB4N006VDisx	AB4N007VDisx	AB4N008VDisx	AB4N009VDisx	AB4N010VDisx	AB5N001VDisx	AB5N002VDisx	AB5N003VDisx	AB5N004VDisx	AB5N005VDisx	AB5N006VDisx	AB5N007VDisx	AB5N008VDisx	AB5N009VDisx	AB5N010VDisx	AB6N001VDisx	AB6N002VDisx	AB6N003VDisx	AB6N004VDisx	AB6N005VDisx	AB6N006VDisx	AB6N007VDisx	AB6N008VDisx	AB6N009VDisx	AB6N010VDisx	AB7N001VDisx	AB7N002VDisx	AB7N003VDisx	AB7N004VDisx	AB7N005VDisx	AB7N006VDisx	AB7N007VDisx	AB7N008VDisx	AB7N009VDisx	AB7N010VDisx	AB8N001VDisx	AB8N002VDisx	AB8N003VDisx	AB8N004VDisx	AB8N005VDisx	AB8N006VDisx	AB8N007VDisx	AB8N008VDisx	AB8N009VDisx	AB8N010VDisx	AB9N001VDisx	AB9N002VDisx	AB9N003VDisx	AB9N004VDisx	AB9N005VDisx	AB9N006VDisx	AB9N007VDisx	AB9N008VDisx	AB9N009VDisx	AB9N010VDisx	AB1N001VDisy	AB1N002VDisy	AB1N003VDisy	AB1N004VDisy	AB1N005VDisy	AB1N006VDisy	AB1N007VDisy	AB1N008VDisy	AB1N009VDisy	AB1N010VDisy	AB2N001VDisy	AB2N002VDisy	AB2N003VDisy	AB2N004VDisy	AB2N005VDisy	AB2N006VDisy	AB2N007VDisy	AB2N008VDisy	AB2N009VDisy	AB2N010VDisy	AB3N001VDisy	AB3N002VDisy	AB3N003VDisy	AB3N004VDisy	AB3N005VDisy	AB3N006VDisy	AB3N007VDisy	AB3N008VDisy	AB3N009VDisy	AB3N010VDisy	AB4N001VDisy	AB4N002VDisy	AB4N003VDisy	AB4N004VDisy	AB4N005VDisy	AB4N006VDisy	AB4N007VDisy	AB4N008VDisy	AB4N009VDisy	AB4N010VDisy	AB5N001VDisy	AB5N002VDisy	AB5N003VDisy	AB5N004VDisy	AB5N005VDisy	AB5N006VDisy	AB5N007VDisy	AB5N008VDisy	AB5N009VDisy	AB5N010VDisy	AB6N001VDisy	AB6N002VDisy	AB6N003VDisy	AB6N004VDisy	AB6N005VDisy	AB6N006VDisy	AB6N007VDisy	AB6N008VDisy	AB6N009VDisy	AB6N010VDisy	AB7N001VDisy	AB7N002VDisy	AB7N003VDisy	AB7N004VDisy	AB7N005VDisy	AB7N006VDisy	AB7N007VDisy	AB7N008VDisy	AB7N009VDisy	AB7N010VDisy	AB8N001VDisy	AB8N002VDisy	AB8N003VDisy	AB8N004VDisy	AB8N005VDisy	AB8N006VDisy	AB8N007VDisy	AB8N008VDisy	AB8N009VDisy	AB8N010VDisy	AB9N001VDisy	AB9N002VDisy	AB9N003VDisy	AB9N004VDisy	AB9N005VDisy	AB9N006VDisy	AB9N007VDisy	AB9N008VDisy	AB9N009VDisy	AB9N010VDisy	AB1N001VDisz	AB1N002VDisz	AB1N003VDisz	AB1N004VDisz	AB1N005VDisz	AB1N006VDisz	AB1N007VDisz	AB1N008VDisz	AB1N009VDisz	AB1N010VDisz	AB2N001VDisz	AB2N002VDisz	AB2N003VDisz	AB2N004VDisz	AB2N005VDisz	AB2N006VDisz	AB2N007VDisz	AB2N008VDisz	AB2N009VDisz	AB2N010VDisz	AB3N001VDisz	AB3N002VDisz	AB3N003VDisz	AB3N004VDisz	AB3N005VDisz	AB3N006VDisz	AB3N007VDisz	AB3N008VDisz	AB3N009VDisz	AB3N010VDisz	AB4N001VDisz	AB4N002VDisz	AB4N003VDisz	AB4N004VDisz	AB4N005VDisz	AB4N006VDisz	AB4N007VDisz	AB4N008VDisz	AB4N009VDisz	AB4N010VDisz	AB5N001VDisz	AB5N002VDisz	AB5N003VDisz	AB5N004VDisz	AB5N005VDisz	AB5N006VDisz	AB5N007VDisz	AB5N008VDisz	AB5N009VDisz	AB5N010VDisz	AB6N001VDisz	AB6N002VDisz	AB6N003VDisz	AB6N004VDisz	AB6N005VDisz	AB6N006VDisz	AB6N007VDisz	AB6N008VDisz	AB6N009VDisz	AB6N010VDisz	AB7N001VDisz	AB7N002VDisz	AB7N003VDisz	AB7N004VDisz	AB7N005VDisz	AB7N006VDisz	AB7N007VDisz	AB7N008VDisz	AB7N009VDisz	AB7N010VDisz	AB8N001VDisz	AB8N002VDisz	AB8N003VDisz	AB8N004VDisz	AB8N005VDisz	AB8N006VDisz	AB8N007VDisz	AB8N008VDisz	AB8N009VDisz	AB8N010VDisz	AB9N001VDisz	AB9N002VDisz	AB9N003VDisz	AB9N004VDisz	AB9N005VDisz	AB9N006VDisz	AB9N007VDisz	AB9N008VDisz	AB9N009VDisz	AB9N010VDisz	AB1N001STVx 	AB1N002STVx 	AB1N003STVx 	AB1N004STVx 	AB1N005STVx 	AB1N006STVx 	AB1N007STVx 	AB1N008STVx 	AB1N009STVx 	AB1N010STVx 	AB2N001STVx 	AB2N002STVx 	AB2N003STVx 	AB2N004STVx 	AB2N005STVx 	AB2N006STVx 	AB2N007STVx 	AB2N008STVx 	AB2N009STVx 	AB2N010STVx 	AB3N001STVx 	AB3N002STVx 	AB3N003STVx 	AB3N004STVx 	AB3N005STVx 	AB3N006STVx 	AB3N007STVx 	AB3N008STVx 	AB3N009STVx 	AB3N010STVx 	AB4N001STVx 	AB4N002STVx 	AB4N003STVx 	AB4N004STVx 	AB4N005STVx 	AB4N006STVx 	AB4N007STVx 	AB4N008STVx 	AB4N009STVx 	AB4N010STVx 	AB5N001STVx 	AB5N002STVx 	AB5N003STVx 	AB5N004STVx 	AB5N005STVx 	AB5N006STVx 	AB5N007STVx 	AB5N008STVx 	AB5N009STVx 	AB5N010STVx 	AB6N001STVx 	AB6N002STVx 	AB6N003STVx 	AB6N004STVx 	AB6N005STVx 	AB6N006STVx 	AB6N007STVx 	AB6N008STVx 	AB6N009STVx 	AB6N010STVx 	AB7N001STVx 	AB7N002STVx 	AB7N003STVx 	AB7N004STVx 	AB7N005STVx 	AB7N006STVx 	AB7N007STVx 	AB7N008STVx 	AB7N009STVx 	AB7N010STVx 	AB8N001STVx 	AB8N002STVx 	AB8N003STVx 	AB8N004STVx 	AB8N005STVx 	AB8N006STVx 	AB8N007STVx 	AB8N008STVx 	AB8N009STVx 	AB8N010STVx 	AB9N001STVx 	AB9N002STVx 	AB9N003STVx 	AB9N004STVx 	AB9N005STVx 	AB9N006STVx 	AB9N007STVx 	AB9N008STVx 	AB9N009STVx 	AB9N010STVx 	AB1N001STVy 	AB1N002STVy 	AB1N003STVy 	AB1N004STVy 	AB1N005STVy 	AB1N006STVy 	AB1N007STVy 	AB1N008STVy 	AB1N009STVy 	AB1N010STVy 	AB2N001STVy 	AB2N002STVy 	AB2N003STVy 	AB2N004STVy 	AB2N005STVy 	AB2N006STVy 	AB2N007STVy 	AB2N008STVy 	AB2N009STVy 	AB2N010STVy 	AB3N001STVy 	AB3N002STVy 	AB3N003STVy 	AB3N004STVy 	AB3N005STVy 	AB3N006STVy 	AB3N007STVy 	AB3N008STVy 	AB3N009STVy 	AB3N010STVy 	AB4N001STVy 	AB4N002STVy 	AB4N003STVy 	AB4N004STVy 	AB4N005STVy 	AB4N006STVy 	AB4N007STVy 	AB4N008STVy 	AB4N009STVy 	AB4N010STVy 	AB5N001STVy 	AB5N002STVy 	AB5N003STVy 	AB5N004STVy 	AB5N005STVy 	AB5N006STVy 	AB5N007STVy 	AB5N008STVy 	AB5N009STVy 	AB5N010STVy 	AB6N001STVy 	AB6N002STVy 	AB6N003STVy 	AB6N004STVy 	AB6N005STVy 	AB6N006STVy 	AB6N007STVy 	AB6N008STVy 	AB6N009STVy 	AB6N010STVy 	AB7N001STVy 	AB7N002STVy 	AB7N003STVy 	AB7N004STVy 	AB7N005STVy 	AB7N006STVy 	AB7N007STVy 	AB7N008STVy 	AB7N009STVy 	AB7N010STVy 	AB8N001STVy 	AB8N002STVy 	AB8N003STVy 	AB8N004STVy 	AB8N005STVy 	AB8N006STVy 	AB8N007STVy 	AB8N008STVy 	AB8N009STVy 	AB8N010STVy 	AB9N001STVy 	AB9N002STVy 	AB9N003STVy 	AB9N004STVy 	AB9N005STVy 	AB9N006STVy 	AB9N007STVy 	AB9N008STVy 	AB9N009STVy 	AB9N010STVy 	AB1N001STVz 	AB1N002STVz 	AB1N003STVz 	AB1N004STVz 	AB1N005STVz 	AB1N006STVz 	AB1N007STVz 	AB1N008STVz 	AB1N009STVz 	AB1N010STVz 	AB2N001STVz 	AB2N002STVz 	AB2N003STVz 	AB2N004STVz 	AB2N005STVz 	AB2N006STVz 	AB2N007STVz 	AB2N008STVz 	AB2N009STVz 	AB2N010STVz 	AB3N001STVz 	AB3N002STVz 	AB3N003STVz 	AB3N004STVz 	AB3N005STVz 	AB3N006STVz 	AB3N007STVz 	AB3N008STVz 	AB3N009STVz 	AB3N010STVz 	AB4N001STVz 	AB4N002STVz 	AB4N003STVz 	AB4N004STVz 	AB4N005STVz 	AB4N006STVz 	AB4N007STVz 	AB4N008STVz 	AB4N009STVz 	AB4N010STVz 	AB5N001STVz 	AB5N002STVz 	AB5N003STVz 	AB5N004STVz 	AB5N005STVz 	AB5N006STVz 	AB5N007STVz 	AB5N008STVz 	AB5N009STVz 	AB5N010STVz 	AB6N001STVz 	AB6N002STVz 	AB6N003STVz 	AB6N004STVz 	AB6N005STVz 	AB6N006STVz 	AB6N007STVz 	AB6N008STVz 	AB6N009STVz 	AB6N010STVz 	AB7N001STVz 	AB7N002STVz 	AB7N003STVz 	AB7N004STVz 	AB7N005STVz 	AB7N006STVz 	AB7N007STVz 	AB7N008STVz 	AB7N009STVz 	AB7N010STVz 	AB8N001STVz 	AB8N002STVz 	AB8N003STVz 	AB8N004STVz 	AB8N005STVz 	AB8N006STVz 	AB8N007STVz 	AB8N008STVz 	AB8N009STVz 	AB8N010STVz 	AB9N001STVz 	AB9N002STVz 	AB9N003STVz 	AB9N004STVz 	AB9N005STVz 	AB9N006STVz 	AB9N007STVz 	AB9N008STVz 	AB9N009STVz 	AB9N010STVz 	AB1N001Vrel 	AB1N002Vrel 	AB1N003Vrel 	AB1N004Vrel 	AB1N005Vrel 	AB1N006Vrel 	AB1N007Vrel 	AB1N008Vrel 	AB1N009Vrel 	AB1N010Vrel 	AB2N001Vrel 	AB2N002Vrel 	AB2N003Vrel 	AB2N004Vrel 	AB2N005Vrel 	AB2N006Vrel 	AB2N007Vrel 	AB2N008Vrel 	AB2N009Vrel 	AB2N010Vrel 	AB3N001Vrel 	AB3N002Vrel 	AB3N003Vrel 	AB3N004Vrel 	AB3N005Vrel 	AB3N006Vrel 	AB3N007Vrel 	AB3N008Vrel 	AB3N009Vrel 	AB3N010Vrel 	AB4N001Vrel 	AB4N002Vrel 	AB4N003Vrel 	AB4N004Vrel 	AB4N005Vrel 	AB4N006Vrel 	AB4N007Vrel 	AB4N008Vrel 	AB4N009Vrel 	AB4N010Vrel 	AB5N001Vrel 	AB5N002Vrel 	AB5N003Vrel 	AB5N004Vrel 	AB5N005Vrel 	AB5N006Vrel 	AB5N007Vrel 	AB5N008Vrel 	AB5N009Vrel 	AB5N010Vrel 	AB6N001Vrel 	AB6N002Vrel 	AB6N003Vrel 	AB6N004Vrel 	AB6N005Vrel 	AB6N006Vrel 	AB6N007Vrel 	AB6N008Vrel 	AB6N009Vrel 	AB6N010Vrel 	AB7N001Vrel 	AB7N002Vrel 	AB7N003Vrel 	AB7N004Vrel 	AB7N005Vrel 	AB7N006Vrel 	AB7N007Vrel 	AB7N008Vrel 	AB7N009Vrel 	AB7N010Vrel 	AB8N001Vrel 	AB8N002Vrel 	AB8N003Vrel 	AB8N004Vrel 	AB8N005Vrel 	AB8N006Vrel 	AB8N007Vrel 	AB8N008Vrel 	AB8N009Vrel 	AB8N010Vrel 	AB9N001Vrel 	AB9N002Vrel 	AB9N003Vrel 	AB9N004Vrel 	AB9N005Vrel 	AB9N006Vrel 	AB9N007Vrel 	AB9N008Vrel 	AB9N009Vrel 	AB9N010Vrel 	AB1N001Vindx	AB1N002Vindx	AB1N003Vindx	AB1N004Vindx	AB1N005Vindx	AB1N006Vindx	AB1N007Vindx	AB1N008Vindx	AB1N009Vindx	AB1N010Vindx	AB2N001Vindx	AB2N002Vindx	AB2N003Vindx	AB2N004Vindx	AB2N005Vindx	AB2N006Vindx	AB2N007Vindx	AB2N008Vindx	AB2N009Vindx	AB2N010Vindx	AB3N001Vindx	AB3N002Vindx	AB3N003Vindx	AB3N004Vindx	AB3N005Vindx	AB3N006Vindx	AB3N007Vindx	AB3N008Vindx	AB3N009Vindx	AB3N010Vindx	AB4N001Vindx	AB4N002Vindx	AB4N003Vindx	AB4N004Vindx	AB4N005Vindx	AB4N006Vindx	AB4N007Vindx	AB4N008Vindx	AB4N009Vindx	AB4N010Vindx	AB5N001Vindx	AB5N002Vindx	AB5N003Vindx	AB5N004Vindx	AB5N005Vindx	AB5N006Vindx	AB5N007Vindx	AB5N008Vindx	AB5N009Vindx	AB5N010Vindx	AB6N001Vindx	AB6N002Vindx	AB6N003Vindx	AB6N004Vindx	AB6N005Vindx	AB6N006Vindx	AB6N007Vindx	AB6N008Vindx	AB6N009Vindx	AB6N010Vindx	AB7N001Vindx	AB7N002Vindx	AB7N003Vindx	AB7N004Vindx	AB7N005Vindx	AB7N006Vindx	AB7N007Vindx	AB7N008Vindx	AB7N009Vindx	AB7N010Vindx	AB8N001Vindx	AB8N002Vindx	AB8N003Vindx	AB8N004Vindx	AB8N005Vindx	AB8N006Vindx	AB8N007Vindx	AB8N008Vindx	AB8N009Vindx	AB8N010Vindx	AB9N001Vindx	AB9N002Vindx	AB9N003Vindx	AB9N004Vindx	AB9N005Vindx	AB9N006Vindx	AB9N007Vindx	AB9N008Vindx	AB9N009Vindx	AB9N010Vindx	AB1N001Vindy	AB1N002Vindy	AB1N003Vindy	AB1N004Vindy	AB1N005Vindy	AB1N006Vindy	AB1N007Vindy	AB1N008Vindy	AB1N009Vindy	AB1N010Vindy	AB2N001Vindy	AB2N002Vindy	AB2N003Vindy	AB2N004Vindy	AB2N005Vindy	AB2N006Vindy	AB2N007Vindy	AB2N008Vindy	AB2N009Vindy	AB2N010Vindy	AB3N001Vindy	AB3N002Vindy	AB3N003Vindy	AB3N004Vindy	AB3N005Vindy	AB3N006Vindy	AB3N007Vindy	AB3N008Vindy	AB3N009Vindy	AB3N010Vindy	AB4N001Vindy	AB4N002Vindy	AB4N003Vindy	AB4N004Vindy	AB4N005Vindy	AB4N006Vindy	AB4N007Vindy	AB4N008Vindy	AB4N009Vindy	AB4N010Vindy	AB5N001Vindy	AB5N002Vindy	AB5N003Vindy	AB5N004Vindy	AB5N005Vindy	AB5N006Vindy	AB5N007Vindy	AB5N008Vindy	AB5N009Vindy	AB5N010Vindy	AB6N001Vindy	AB6N002Vindy	AB6N003Vindy	AB6N004Vindy	AB6N005Vindy	AB6N006Vindy	AB6N007Vindy	AB6N008Vindy	AB6N009Vindy	AB6N010Vindy	AB7N001Vindy	AB7N002Vindy	AB7N003Vindy	AB7N004Vindy	AB7N005Vindy	AB7N006Vindy	AB7N007Vindy	AB7N008Vindy	AB7N009Vindy	AB7N010Vindy	AB8N001Vindy	AB8N002Vindy	AB8N003Vindy	AB8N004Vindy	AB8N005Vindy	AB8N006Vindy	AB8N007Vindy	AB8N008Vindy	AB8N009Vindy	AB8N010Vindy	AB9N001Vindy	AB9N002Vindy	AB9N003Vindy	AB9N004Vindy	AB9N005Vindy	AB9N006Vindy	AB9N007Vindy	AB9N008Vindy	AB9N009Vindy	AB9N010Vindy	AB1N001Gam  	AB1N002Gam  	AB1N003Gam  	AB1N004Gam  	AB1N005Gam  	AB1N006Gam  	AB1N007Gam  	AB1N008Gam  	AB1N009Gam  	AB1N010Gam  	AB2N001Gam  	AB2N002Gam  	AB2N003Gam  	AB2N004Gam  	AB2N005Gam  	AB2N006Gam  	AB2N007Gam  	AB2N008Gam  	AB2N009Gam  	AB2N010Gam  	AB3N001Gam  	AB3N002Gam  	AB3N003Gam  	AB3N004Gam  	AB3N005Gam  	AB3N006Gam  	AB3N007Gam  	AB3N008Gam  	AB3N009Gam  	AB3N010Gam  	AB4N001Gam  	AB4N002Gam  	AB4N003Gam  	AB4N004Gam  	AB4N005Gam  	AB4N006Gam  	AB4N007Gam  	AB4N008Gam  	AB4N009Gam  	AB4N010Gam  	AB5N001Gam  	AB5N002Gam  	AB5N003Gam  	AB5N004Gam  	AB5N005Gam  	AB5N006Gam  	AB5N007Gam  	AB5N008Gam  	AB5N009Gam  	AB5N010Gam  	AB6N001Gam  	AB6N002Gam  	AB6N003Gam  	AB6N004Gam  	AB6N005Gam  	AB6N006Gam  	AB6N007Gam  	AB6N008Gam  	AB6N009Gam  	AB6N010Gam  	AB7N001Gam  	AB7N002Gam  	AB7N003Gam  	AB7N004Gam  	AB7N005Gam  	AB7N006Gam  	AB7N007Gam  	AB7N008Gam  	AB7N009Gam  	AB7N010Gam  	AB8N001Gam  	AB8N002Gam  	AB8N003Gam  	AB8N004Gam  	AB8N005Gam  	AB8N006Gam  	AB8N007Gam  	AB8N008Gam  	AB8N009Gam  	AB8N010Gam  	AB9N001Gam  	AB9N002Gam  	AB9N003Gam  	AB9N004Gam  	AB9N005Gam  	AB9N006Gam  	AB9N007Gam  	AB9N008Gam  	AB9N009Gam  	AB9N010Gam  	AB1N001Fn   	AB1N002Fn   	AB1N003Fn   	AB1N004Fn   	AB1N005Fn   	AB1N006Fn   	AB1N007Fn   	AB1N008Fn   	AB1N009Fn   	AB1N010Fn   	AB2N001Fn   	AB2N002Fn   	AB2N003Fn   	AB2N004Fn   	AB2N005Fn   	AB2N006Fn   	AB2N007Fn   	AB2N008Fn   	AB2N009Fn   	AB2N010Fn   	AB3N001Fn   	AB3N002Fn   	AB3N003Fn   	AB3N004Fn   	AB3N005Fn   	AB3N006Fn   	AB3N007Fn   	AB3N008Fn   	AB3N009Fn   	AB3N010Fn   	AB4N001Fn   	AB4N002Fn   	AB4N003Fn   	AB4N004Fn   	AB4N005Fn   	AB4N006Fn   	AB4N007Fn   	AB4N008Fn   	AB4N009Fn   	AB4N010Fn   	AB5N001Fn   	AB5N002Fn   	AB5N003Fn   	AB5N004Fn   	AB5N005Fn   	AB5N006Fn   	AB5N007Fn   	AB5N008Fn   	AB5N009Fn   	AB5N010Fn   	AB6N001Fn   	AB6N002Fn   	AB6N003Fn   	AB6N004Fn   	AB6N005Fn   	AB6N006Fn   	AB6N007Fn   	AB6N008Fn   	AB6N009Fn   	AB6N010Fn   	AB7N001Fn   	AB7N002Fn   	AB7N003Fn   	AB7N004Fn   	AB7N005Fn   	AB7N006Fn   	AB7N007Fn   	AB7N008Fn   	AB7N009Fn   	AB7N010Fn   	AB8N001Fn   	AB8N002Fn   	AB8N003Fn   	AB8N004Fn   	AB8N005Fn   	AB8N006Fn   	AB8N007Fn   	AB8N008Fn   	AB8N009Fn   	AB8N010Fn   	AB9N001Fn   	AB9N002Fn   	AB9N003Fn   	AB9N004Fn   	AB9N005Fn   	AB9N006Fn   	AB9N007Fn   	AB9N008Fn   	AB9N009Fn   	AB9N010Fn   	AB1N001Ft   	AB1N002Ft   	AB1N003Ft   	AB1N004Ft   	AB1N005Ft   	AB1N006Ft   	AB1N007Ft   	AB1N008Ft   	AB1N009Ft   	AB1N010Ft   	AB2N001Ft   	AB2N002Ft   	AB2N003Ft   	AB2N004Ft   	AB2N005Ft   	AB2N006Ft   	AB2N007Ft   	AB2N008Ft   	AB2N009Ft   	AB2N010Ft   	AB3N001Ft   	AB3N002Ft   	AB3N003Ft   	AB3N004Ft   	AB3N005Ft   	AB3N006Ft   	AB3N007Ft   	AB3N008Ft   	AB3N009Ft   	AB3N010Ft   	AB4N001Ft   	AB4N002Ft   	AB4N003Ft   	AB4N004Ft   	AB4N005Ft   	AB4N006Ft   	AB4N007Ft   	AB4N008Ft   	AB4N009Ft   	AB4N010Ft   	AB5N001Ft   	AB5N002Ft   	AB5N003Ft   	AB5N004Ft   	AB5N005Ft   	AB5N006Ft   	AB5N007Ft   	AB5N008Ft   	AB5N009Ft   	AB5N010Ft   	AB6N001Ft   	AB6N002Ft   	AB6N003Ft   	AB6N004Ft   	AB6N005Ft   	AB6N006Ft   	AB6N007Ft   	AB6N008Ft   	AB6N009Ft   	AB6N010Ft   	AB7N001Ft   	AB7N002Ft   	AB7N003Ft   	AB7N004Ft   	AB7N005Ft   	AB7N006Ft   	AB7N007Ft   	AB7N008Ft   	AB7N009Ft   	AB7N010Ft   	AB8N001Ft   	AB8N002Ft   	AB8N003Ft   	AB8N004Ft   	AB8N005Ft   	AB8N006Ft   	AB8N007Ft   	AB8N008Ft   	AB8N009Ft   	AB8N010Ft   	AB9N001Ft   	AB9N002Ft   	AB9N003Ft   	AB9N004Ft   	AB9N005Ft   	AB9N006Ft   	AB9N007Ft   	AB9N008Ft   	AB9N009Ft   	AB9N010Ft   	AB1N001Cx   	AB1N002Cx   	AB1N003Cx   	AB1N004Cx   	AB1N005Cx   	AB1N006Cx   	AB1N007Cx   	AB1N008Cx   	AB1N009Cx   	AB1N010Cx   	AB2N001Cx   	AB2N002Cx   	AB2N003Cx   	AB2N004Cx   	AB2N005Cx   	AB2N006Cx   	AB2N007Cx   	AB2N008Cx   	AB2N009Cx   	AB2N010Cx   	AB3N001Cx   	AB3N002Cx   	AB3N003Cx   	AB3N004Cx   	AB3N005Cx   	AB3N006Cx   	AB3N007Cx   	AB3N008Cx   	AB3N009Cx   	AB3N010Cx   	AB4N001Cx   	AB4N002Cx   	AB4N003Cx   	AB4N004Cx   	AB4N005Cx   	AB4N006Cx   	AB4N007Cx   	AB4N008Cx   	AB4N009Cx   	AB4N010Cx   	AB5N001Cx   	AB5N002Cx   	AB5N003Cx   	AB5N004Cx   	AB5N005Cx   	AB5N006Cx   	AB5N007Cx   	AB5N008Cx   	AB5N009Cx   	AB5N010Cx   	AB6N001Cx   	AB6N002Cx   	AB6N003Cx   	AB6N004Cx   	AB6N005Cx   	AB6N006Cx   	AB6N007Cx   	AB6N008Cx   	AB6N009Cx   	AB6N010Cx   	AB7N001Cx   	AB7N002Cx   	AB7N003Cx   	AB7N004Cx   	AB7N005Cx   	AB7N006Cx   	AB7N007Cx   	AB7N008Cx   	AB7N009Cx   	AB7N010Cx   	AB8N001Cx   	AB8N002Cx   	AB8N003Cx   	AB8N004Cx   	AB8N005Cx   	AB8N006Cx   	AB8N007Cx   	AB8N008Cx   	AB8N009Cx   	AB8N010Cx   	AB9N001Cx   	AB9N002Cx   	AB9N003Cx   	AB9N004Cx   	AB9N005Cx   	AB9N006Cx   	AB9N007Cx   	AB9N008Cx   	AB9N009Cx   	AB9N010Cx   	AB1N001Cy   	AB1N002Cy   	AB1N003Cy   	AB1N004Cy   	AB1N005Cy   	AB1N006Cy   	AB1N007Cy   	AB1N008Cy   	AB1N009Cy   	AB1N010Cy   	AB2N001Cy   	AB2N002Cy   	AB2N003Cy   	AB2N004Cy   	AB2N005Cy   	AB2N006Cy   	AB2N007Cy   	AB2N008Cy   	AB2N009Cy   	AB2N010Cy   	AB3N001Cy   	AB3N002Cy   	AB3N003Cy   	AB3N004Cy   	AB3N005Cy   	AB3N006Cy   	AB3N007Cy   	AB3N008Cy   	AB3N009Cy   	AB3N010Cy   	AB4N001Cy   	AB4N002Cy   	AB4N003Cy   	AB4N004Cy   	AB4N005Cy   	AB4N006Cy   	AB4N007Cy   	AB4N008Cy   	AB4N009Cy   	AB4N010Cy   	AB5N001Cy   	AB5N002Cy   	AB5N003Cy   	AB5N004Cy   	AB5N005Cy   	AB5N006Cy   	AB5N007Cy   	AB5N008Cy   	AB5N009Cy   	AB5N010Cy   	AB6N001Cy   	AB6N002Cy   	AB6N003Cy   	AB6N004Cy   	AB6N005Cy   	AB6N006Cy   	AB6N007Cy   	AB6N008Cy   	AB6N009Cy  