# vtk DataFile Version 2.0

ASCII
 
DATASET POLYDATA
POINTS 130 double
  0.13839604E+000  0.29997315E-001  0.11318127E+003
  0.66026949E+001  0.19491622E+002  0.10084656E+003
  0.11228301E+002  0.33323696E+002  0.88724083E+002
  0.15119117E+002  0.44866900E+002  0.76523656E+002
  0.17019704E+002  0.50507388E+002  0.64217041E+002
  0.17010939E+002  0.50462747E+002  0.51958164E+002
  0.15099188E+002  0.44778210E+002  0.39676667E+002
  0.11218590E+002  0.33270504E+002  0.27432755E+002
  0.65688239E+001  0.19474085E+002  0.15262698E+002
  0.18812973E-003  0.51327458E-004  0.30001700E+001
  0.31089237E+001 -0.33502222E+001  0.11319027E+003
  0.10765164E+002  0.18028141E+002  0.10084113E+003
  0.14165651E+002  0.32342592E+002  0.88720827E+002
  0.17452459E+002  0.44102148E+002  0.76523600E+002
  0.19156537E+002  0.49784569E+002  0.64217141E+002
  0.19186201E+002  0.49716717E+002  0.51957909E+002
  0.17566400E+002  0.43957001E+002  0.39676062E+002
  0.14466799E+002  0.32182387E+002  0.27432948E+002
  0.10829491E+002  0.18026081E+002  0.15263182E+002
  0.42639274E+001 -0.14386548E+001  0.30257007E+001
  0.32196928E+001 -0.34043925E+001  0.11318389E+003
  0.11258786E+002  0.17827998E+002  0.10082594E+003
  0.14916626E+002  0.32079545E+002  0.88717643E+002
  0.18414218E+002  0.43776719E+002  0.76521474E+002
  0.20218737E+002  0.49422922E+002  0.64215789E+002
  0.20246753E+002  0.49353327E+002  0.51959980E+002
  0.18524740E+002  0.43627378E+002  0.39679803E+002
  0.15214447E+002  0.31913012E+002  0.27436880E+002
  0.11322825E+002  0.17824972E+002  0.15267144E+002
  0.44081477E+001 -0.15144549E+001  0.30324269E+001
  0.33052413E+001 -0.34598612E+001  0.11317754E+003
  0.11743882E+002  0.17629248E+002  0.10082864E+003
  0.15658794E+002  0.31791795E+002  0.88715412E+002
  0.19366235E+002  0.43412326E+002  0.76510801E+002
  0.21279052E+002  0.49040644E+002  0.64214651E+002
  0.21306772E+002  0.48979775E+002  0.51963890E+002
  0.19477000E+002  0.43278181E+002  0.39689679E+002
  0.15955301E+002  0.31626420E+002  0.27447920E+002
  0.11813189E+002  0.17619457E+002  0.15269938E+002
  0.45507182E+001 -0.15904405E+001  0.30348564E+001
  0.33917109E+001 -0.35139408E+001  0.11317460E+003
  0.12227140E+002  0.17425570E+002  0.10083714E+003
  0.16396146E+002  0.31494120E+002  0.88713429E+002
  0.20310844E+002  0.43035142E+002  0.76500177E+002
  0.22332354E+002  0.48645154E+002  0.64213603E+002
  0.22360607E+002  0.48592654E+002  0.51967275E+002
  0.20422986E+002  0.42915621E+002  0.39698988E+002
  0.16691268E+002  0.31330297E+002  0.27457619E+002
  0.12300364E+002  0.17409274E+002  0.15271383E+002
  0.46923319E+001 -0.16655113E+001  0.30378612E+001
  0.34794362E+001 -0.35661450E+001  0.11317052E+003
  0.12708446E+002  0.17216827E+002  0.10085001E+003
  0.17128408E+002  0.31186726E+002  0.88711568E+002
  0.21248272E+002  0.42646466E+002  0.76490195E+002
  0.23379232E+002  0.48238557E+002  0.64213140E+002
  0.23408769E+002  0.48193991E+002  0.51969488E+002
  0.21363037E+002  0.42541090E+002  0.39706594E+002
  0.17422295E+002  0.31025078E+002  0.27465593E+002
  0.12784338E+002  0.17194525E+002  0.15271261E+002
  0.48329325E+001 -0.17399805E+001  0.30357429E+001
  0.35684660E+001 -0.36168777E+001  0.11316758E+003
  0.13187483E+002  0.17002903E+002  0.10086706E+003
  0.17855208E+002  0.30869484E+002  0.88709322E+002
  0.22178832E+002  0.42247423E+002  0.76481163E+002
  0.24420122E+002  0.47822289E+002  0.64213835E+002
  0.24451217E+002  0.47784302E+002  0.51970327E+002
  0.22296405E+002  0.42153495E+002  0.39713712E+002
  0.18147713E+002  0.30709537E+002  0.27473072E+002
  0.13265018E+002  0.16975220E+002  0.15269207E+002
  0.49724686E+001 -0.18139327E+001  0.30331075E+001
  0.36589415E+001 -0.36661802E+001  0.11316588E+003
  0.13663945E+002  0.16783518E+002  0.10088667E+003
  0.18576638E+002  0.30543641E+002  0.88707341E+002
  0.23102187E+002  0.41837804E+002  0.76473488E+002
  0.25453780E+002  0.47393667E+002  0.64214672E+002
  0.25487245E+002  0.47362477E+002  0.51969869E+002
  0.23223816E+002  0.41755689E+002  0.39717146E+002
  0.18868434E+002  0.30386590E+002  0.27477014E+002
  0.13742238E+002  0.16751203E+002  0.15265222E+002
  0.51109205E+001 -0.18873754E+001  0.30301139E+001
  0.37526058E+001 -0.37110027E+001  0.11315919E+003
  0.14137417E+002  0.16558270E+002  0.10090665E+003
  0.19292790E+002  0.30210422E+002  0.88706786E+002
  0.24019070E+002  0.41419510E+002  0.76468735E+002
  0.26479505E+002  0.46951347E+002  0.64216025E+002
  0.26515454E+002  0.46925914E+002  0.51968362E+002
  0.24144050E+002  0.41345655E+002  0.39718714E+002
  0.19583613E+002  0.30054752E+002  0.27479123E+002
  0.14215806E+002  0.16522174E+002  0.15259676E+002
  0.52482462E+001 -0.19602978E+001  0.30269560E+001
  0.38460766E+001 -0.37582138E+001  0.11316020E+003
  0.14606952E+002  0.16325625E+002  0.10092293E+003
  0.20003018E+002  0.29869336E+002  0.88706109E+002
  0.24928565E+002  0.40990531E+002  0.76465386E+002
  0.27495541E+002  0.46491733E+002  0.64216869E+002
  0.27533632E+002  0.46470575E+002  0.51966870E+002
  0.25056010E+002  0.40921895E+002  0.39719304E+002
  0.20292876E+002  0.29713931E+002  0.27479864E+002
  0.14685335E+002  0.16287742E+002  0.15253161E+002
  0.53843494E+001 -0.20326905E+001  0.30239400E+001
  0.39426654E+001 -0.38016144E+001  0.11315750E+003
  0.15072496E+002  0.16086836E+002  0.10093537E+003
  0.20706565E+002  0.29519752E+002  0.88703656E+002
  0.25830509E+002  0.40550318E+002  0.76463175E+002
  0.28500455E+002  0.46012405E+002  0.64217048E+002
  0.28539671E+002  0.45993275E+002  0.51965808E+002
  0.25958857E+002  0.40483402E+002  0.39719589E+002
  0.20994931E+002  0.29362147E+002  0.27482150E+002
  0.15149052E+002  0.16044763E+002  0.15249939E+002
  0.55191297E+001 -0.21044950E+001  0.30213802E+001
  0.40415617E+001 -0.38442469E+001  0.11315417E+003
  0.15533305E+002  0.15842146E+002  0.10094491E+003
  0.21404851E+002  0.29164900E+002  0.88702553E+002
  0.26725269E+002  0.40099349E+002  0.76461767E+002
  0.29494474E+002  0.45514680E+002  0.64216339E+002
  0.29533111E+002  0.45494033E+002  0.51965821E+002
  0.26852942E+002  0.40031229E+002  0.39720032E+002
  0.21691307E+002  0.29003505E+002  0.27482337E+002
  0.15608979E+002  0.15798508E+002  0.15244290E+002
  0.56525943E+001 -0.21756460E+001  0.30196014E+001
  0.41423647E+001 -0.38859953E+001  0.11315427E+003
  0.15989414E+002  0.15592600E+002  0.10094885E+003
  0.22098660E+002  0.28805200E+002  0.88703427E+002
  0.27614355E+002  0.39640581E+002  0.76461769E+002
  0.30479232E+002  0.45002117E+002  0.64215580E+002
  0.30517979E+002  0.44981784E+002  0.51966439E+002
  0.27740755E+002  0.39570319E+002  0.39719682E+002
  0.22382758E+002  0.28639501E+002  0.27480244E+002
  0.16064076E+002  0.15547053E+002  0.15240812E+002
  0.57849452E+001 -0.22458203E+001  0.30186996E+001
  
POLYGONS 108 540
      4      0      1     11     10
      4      1      2     12     11
      4      2      3     13     12
      4      3      4     14     13
      4      4      5     15     14
      4      5      6     16     15
      4      6      7     17     16
      4      7      8     18     17
      4      8      9     19     18
      4     10     11     21     20
      4     11     12     22     21
      4     12     13     23     22
      4     13     14     24     23
      4     14     15     25     24
      4     15     16     26     25
      4     16     17     27     26
      4     17     18     28     27
      4     18     19     29     28
      4     20     21     31     30
      4     21     22     32     31
      4     22     23     33     32
      4     23     24     34     33
      4     24     25     35     34
      4     25     26     36     35
      4     26     27     37     36
      4     27     28     38     37
      4     28     29     39     38
      4     30     31     41     40
      4     31     32     42     41
      4     32     33     43     42
      4     33     34     44     43
      4     34     35     45     44
      4     35     36     46     45
      4     36     37     47     46
      4     37     38     48     47
      4     38     39     49     48
      4     40     41     51     50
      4     41     42     52     51
      4     42     43     53     52
      4     43     44     54     53
      4     44     45     55     54
      4     45     46     56     55
      4     46     47     57     56
      4     47     48     58     57
      4     48     49     59     58
      4     50     51     61     60
      4     51     52     62     61
      4     52     53     63     62
      4     53     54     64     63
      4     54     55     65     64
      4     55     56     66     65
      4     56     57     67     66
      4     57     58     68     67
      4     58     59     69     68
      4     60     61     71     70
      4     61     62     72     71
      4     62     63     73     72
      4     63     64     74     73
      4     64     65     75     74
      4     65     66     76     75
      4     66     67     77     76
      4     67     68     78     77
      4     68     69     79     78
      4     70     71     81     80
      4     71     72     82     81
      4     72     73     83     82
      4     73     74     84     83
      4     74     75     85     84
      4     75     76     86     85
      4     76     77     87     86
      4     77     78     88     87
      4     78     79     89     88
      4     80     81     91     90
      4     81     82     92     91
      4     82     83     93     92
      4     83     84     94     93
      4     84     85     95     94
      4     85     86     96     95
      4     86     87     97     96
      4     87     88     98     97
      4     88     89     99     98
      4     90     91    101    100
      4     91     92    102    101
      4     92     93    103    102
      4     93     94    104    103
      4     94     95    105    104
      4     95     96    106    105
      4     96     97    107    106
      4     97     98    108    107
      4     98     99    109    108
      4    100    101    111    110
      4    101    102    112    111
      4    102    103    113    112
      4    103    104    114    113
      4    104    105    115    114
      4    105    106    116    115
      4    106    107    117    116
      4    107    108    118    117
      4    108    109    119    118
      4    110    111    121    120
      4    111    112    122    121
      4    112    113    123    122
      4    113    114    124    123
      4    114    115    125    124
      4    115    116    126    125
      4    116    117    127    126
      4    117    118    128    127
      4    118    119    129    128
  
CELL_DATA 108
SCALARS Gamma double
LOOKUP_TABLE default
  0.11523058E+003
  0.52652058E+002
  0.20197811E+002
  0.31832554E+002
  0.53871936E+002
  0.46006156E+002
  0.32269965E+002
  0.45890382E+002
  0.53393390E+002
  0.11523058E+003
  0.52652058E+002
  0.20197811E+002
  0.31832554E+002
  0.53871936E+002
  0.46006156E+002
  0.32269965E+002
  0.45890382E+002
  0.53393390E+002
  0.11550391E+003
  0.55599070E+002
  0.22622397E+002
  0.34596947E+002
  0.56909105E+002
  0.48939084E+002
  0.35019932E+002
  0.49063237E+002
  0.56174020E+002
  0.11260791E+003
  0.55118972E+002
  0.23710119E+002
  0.36574781E+002
  0.57627379E+002
  0.49673087E+002
  0.36249274E+002
  0.50634756E+002
  0.57102687E+002
  0.10000560E+003
  0.49889924E+002
  0.22951288E+002
  0.35053800E+002
  0.52787068E+002
  0.45703218E+002
  0.34215870E+002
  0.47591404E+002
  0.52785673E+002
  0.80240252E+002
  0.41003710E+002
  0.20324579E+002
  0.30230284E+002
  0.43423174E+002
  0.37859980E+002
  0.29248693E+002
  0.40490246E+002
  0.44129981E+002
  0.57999852E+002
  0.30493256E+002
  0.16374694E+002
  0.23384678E+002
  0.31974723E+002
  0.28167340E+002
  0.22576558E+002
  0.31041105E+002
  0.33225043E+002
  0.35761694E+002
  0.19421458E+002
  0.11297451E+002
  0.15331624E+002
  0.19929530E+002
  0.17800053E+002
  0.14857698E+002
  0.20276385E+002
  0.21328000E+002
  0.15959946E+002
  0.89899100E+001
  0.56573961E+001
  0.72274289E+001
  0.89183685E+001
  0.81136264E+001
  0.70842443E+001
  0.95628548E+001
  0.98835952E+001
  0.32256505E+001
  0.18979344E+001
  0.12865983E+001
  0.15436262E+001
  0.18072758E+001
  0.16817938E+001
  0.15339126E+001
  0.20388992E+001
  0.20787311E+001
  0.37831218E-001
  0.23374740E-001
  0.16846978E-001
  0.18749696E-001
  0.20843277E-001
  0.19884976E-001
  0.19074689E-001
  0.25027292E-001
  0.25240302E-001
  0.00000000E+000
  0.00000000E+000
  0.00000000E+000
  0.00000000E+000
  0.00000000E+000
  0.00000000E+000
  0.00000000E+000
  0.00000000E+000
  0.00000000E+000
POINT_DATA 130
VECTORS Uconv double
  0.00000000E+000  0.00000000E+000  0.00000000E+000
  0.00000000E+000  0.00000000E+000  0.00000000E+000
  0.00000000E+000  0.00000000E+000  0.00000000E+000
  0.00000000E+000  0.00000000E+000  0.00000000E+000
  0.00000000E+000  0.00000000E+000  0.00000000E+000
  0.00000000E+000  0.00000000E+000  0.00000000E+000
  0.00000000E+000  0.00000000E+000  0.00000000E+000
  0.00000000E+000  0.00000000E+000  0.00000000E+000
  0.00000000E+000  0.00000000E+000  0.00000000E+000
  0.00000000E+000  0.00000000E+000  0.00000000E+000
  0.00000000E+000  0.00000000E+000  0.00000000E+000
  0.00000000E+000  0.00000000E+000  0.00000000E+000
  0.00000000E+000  0.00000000E+000  0.00000000E+000
  0.00000000E+000  0.00000000E+000  0.00000000E+000
  0.00000000E+000  0.00000000E+000  0.00000000E+000
  0.00000000E+000  0.00000000E+000  0.00000000E+000
  0.00000000E+000  0.00000000E+000  0.00000000E+000
  0.00000000E+000  0.00000000E+000  0.00000000E+000
  0.00000000E+000  0.00000000E+000  0.00000000E+000
  0.00000000E+000  0.00000000E+000  0.00000000E+000
  0.17161368E+002  0.12806238E+000 -0.63818483E+000
  0.17066660E+002 -0.33303158E+000 -0.15197328E+001
  0.17075660E+002 -0.26669594E+000 -0.31846006E+000
  0.17027399E+002 -0.39378424E+000 -0.21252864E+000
  0.16864669E+002 -0.85468223E+000 -0.13527678E+000
  0.16822505E+002 -0.97695199E+000  0.20749145E+000
  0.16948820E+002 -0.61074932E+000  0.37411395E+000
  0.17036290E+002 -0.35971307E+000  0.39317604E+000
  0.17042607E+002 -0.31370819E+000  0.39615501E+000
  0.17082331E+002  0.76338983E-001  0.67261541E+000
  0.17157985E+002  0.12554855E+000 -0.66856028E+000
  0.17089848E+002 -0.29920829E+000 -0.13576293E+001
  0.17086409E+002 -0.24174713E+000 -0.28740499E+000
  0.17037319E+002 -0.37421578E+000 -0.18920322E+000
  0.16863088E+002 -0.85839815E+000 -0.14024889E+000
  0.16820858E+002 -0.97812181E+000  0.21194051E+000
  0.16963652E+002 -0.57579959E+000  0.33546580E+000
  0.17048033E+002 -0.33213216E+000  0.36043808E+000
  0.17055776E+002 -0.28230153E+000  0.37166380E+000
  0.17060472E+002  0.32586837E-001  0.64875517E+000
  0.17150872E+002  0.10112917E+000 -0.44470160E+000
  0.17111243E+002 -0.26027321E+000 -0.11443174E+001
  0.17101646E+002 -0.20755898E+000 -0.24493884E+000
  0.17048818E+002 -0.35134739E+000 -0.17269768E+000
  0.16889798E+002 -0.79101951E+000 -0.13505918E+000
  0.16850494E+002 -0.90001019E+000  0.20173107E+000
  0.16981055E+002 -0.53505291E+000  0.30613229E+000
  0.17064567E+002 -0.29427469E+000  0.31502655E+000
  0.17070795E+002 -0.24777714E+000  0.33805999E+000
  0.17065812E+002  0.40248734E-001  0.62469703E+000
  0.17154845E+002  0.11123036E+000 -0.44251945E+000
  0.17131186E+002 -0.21845263E+000 -0.92030110E+000
  0.17121119E+002 -0.16521804E+000 -0.19232132E+000
  0.17072551E+002 -0.30155746E+000 -0.13993431E+000
  0.16946227E+002 -0.65102365E+000 -0.11619970E+000
  0.16912865E+002 -0.74111542E+000  0.17283124E+000
  0.17014600E+002 -0.45732132E+000  0.25374880E+000
  0.17086153E+002 -0.24665752E+000  0.25817241E+000
  0.17087453E+002 -0.21112883E+000  0.29933958E+000
  0.17071628E+002  0.48236429E-001  0.60216687E+000
  0.17158722E+002  0.12156741E+000 -0.44051308E+000
  0.17148805E+002 -0.17366972E+000 -0.68125592E+000
  0.17112698E+002 -0.19805891E+000 -0.21893050E+000
  0.17074609E+002 -0.31188326E+000 -0.18293421E+000
  0.17025815E+002 -0.45912790E+000 -0.84843203E-001
  0.17000543E+002 -0.52466871E+000  0.12781252E+000
  0.17013678E+002 -0.47655594E+000  0.31802730E+000
  0.17063431E+002 -0.31612649E+000  0.32465717E+000
  0.17105170E+002 -0.17314522E+000  0.25191993E+000
  0.17077473E+002  0.56366569E-001  0.58117976E+000
  0.17162503E+002  0.13214773E+000 -0.43864830E+000
  0.17164368E+002 -0.12757962E+000 -0.44111968E+000
  0.17139416E+002 -0.14108515E+000 -0.16601705E+000
  0.17119388E+002 -0.21684591E+000 -0.12049206E+000
  0.17115377E+002 -0.25055585E+000 -0.44755221E-001
  0.17099092E+002 -0.28942245E+000  0.72756794E-001
  0.17073886E+002 -0.34002834E+000  0.22534714E+000
  0.17093785E+002 -0.24903578E+000  0.24536067E+000
  0.17123473E+002 -0.13469616E+000  0.19513744E+000
  0.17083207E+002  0.64383688E-001  0.56145576E+000
  0.17166025E+002  0.14267029E+000 -0.43728237E+000
  0.17176672E+002 -0.87284493E-001 -0.22247332E+000
  0.17167700E+002 -0.82280000E-001 -0.89500137E-001
  0.17167696E+002 -0.11598097E+000 -0.53786494E-001
  0.17199581E+002 -0.61999029E-001  0.12017356E-002
  0.17192210E+002 -0.76347810E-001  0.14725098E-001
  0.17137566E+002 -0.19949691E+000  0.12911772E+000
  0.17125800E+002 -0.18005666E+000  0.16358844E+000
  0.17145250E+002 -0.10053765E+000  0.14301330E+000
  0.17088851E+002  0.72348278E-001  0.54296856E+000
  0.17169670E+002  0.15376115E+000 -0.43558892E+000
  0.17189409E+002 -0.49063849E-001 -0.43687582E-001
  0.17195952E+002 -0.25294523E-001 -0.16544498E-001
  0.17213731E+002 -0.22503680E-001  0.11713722E-001
  0.17266685E+002  0.79752959E-001  0.38779051E-001
  0.17267125E+002  0.84738559E-001 -0.34855122E-001
  0.17197452E+002 -0.72217692E-001  0.38331151E-001
  0.17157264E+002 -0.11407236E+000  0.88306523E-001
  0.17163503E+002 -0.64510266E-001  0.78925512E-001
  0.17094387E+002  0.80224503E-001  0.52562492E+000
  0.17252237E+002  0.33345242E+000 -0.55391572E+000
  0.17205151E+002 -0.95543210E-002  0.75919705E-001
  0.17222786E+002  0.26641713E-001  0.49538420E-001
  0.17252033E+002  0.52645664E-001  0.62277597E-001
  0.17312114E+002  0.16752927E+000  0.66942620E-001
  0.17317815E+002  0.18658009E+000 -0.72163404E-001
  0.17246934E+002  0.28501915E-001 -0.33331371E-001
  0.17187560E+002 -0.53197687E-001  0.15005253E-001
  0.17181200E+002 -0.31133769E-001  0.18562789E-001
  0.17099794E+002  0.87981464E-001  0.50935122E+000
  0.17286810E+002  0.42287140E+000 -0.99719079E+000
  0.17224513E+002  0.31789953E-001  0.27266283E+000
  0.17246143E+002  0.71079997E-001  0.10274003E+000
  0.17279930E+002  0.10501622E+000  0.98408785E-001
  0.17337433E+002  0.20978921E+000  0.83416485E-001
  0.17347326E+002  0.23543821E+000 -0.93412583E-001
  0.17283010E+002  0.98438750E-001 -0.86793900E-001
  0.17214164E+002 -0.95322102E-003 -0.45100385E-001
  0.17197677E+002 -0.55119177E-004 -0.41447477E-001
  0.17102227E+002  0.90381409E-001  0.49118695E+000
  0.17258663E+002  0.37038618E+000 -0.93283353E+000
  0.17240837E+002  0.69095155E-001  0.29299508E+000
  0.17265835E+002  0.10718127E+000  0.14946578E+000
  0.17296771E+002  0.13556463E+000  0.12023709E+000
  0.17347434E+002  0.22101843E+000  0.89215536E-001
  0.17358955E+002  0.24861987E+000 -0.10115168E+000
  0.17303233E+002  0.14415037E+000 -0.12285711E+000
  0.17236631E+002  0.42308015E-001 -0.97653562E-001
  0.17212475E+002  0.27411584E-001 -0.91383097E-001
  0.17117353E+002  0.11664385E+000  0.47602972E+000
