# vtk DataFile Version 2.0
BldPointCP.BldC
ASCII
 
DATASET POLYDATA
POINTS 9 double
  0.85096097E+001 -0.78448989E+001  0.10625914E+003
  0.20522449E+002 -0.19391798E+002  0.94486217E+002
  0.30202646E+002 -0.28637529E+002  0.82379526E+002
  0.36695777E+002 -0.34773495E+002  0.70126039E+002
  0.38728737E+002 -0.36632085E+002  0.58084044E+002
  0.36639870E+002 -0.34601827E+002  0.46064898E+002
  0.30135523E+002 -0.28466012E+002  0.33789994E+002
  0.20440969E+002 -0.19333563E+002  0.21594593E+002
  0.83239239E+001 -0.78788942E+001  0.98427225E+001
  
POINT_DATA 9
SCALARS Gamma_LL double
LOOKUP_TABLE default
  0.58631403E+002
  0.10654278E+003
  0.81083806E+002
  0.92263996E+002
  0.10411850E+003
  0.10459999E+003
  0.97287853E+002
  0.11106847E+003
  0.32415356E+002
VECTORS Vind_CP double
 -0.15342221E+000 -0.25472142E+000 -0.42215128E+000
 -0.18365289E+000  0.15448506E+000 -0.31169108E+000
 -0.27403059E+000  0.23614593E+000 -0.22173240E+000
 -0.61711542E+000  0.48778438E+000 -0.19600615E+000
 -0.88791999E+000  0.67615312E+000  0.20418674E-001
 -0.71951462E+000  0.57374795E+000  0.27682246E+000
 -0.37461070E+000  0.32077788E+000  0.32496471E+000
 -0.28169159E+000  0.22406036E+000  0.34978765E+000
 -0.96623797E-001 -0.43412170E-001  0.60346588E-001
VECTORS Vtot_CP double
  0.40861114E+000 -0.15922969E+002  0.56972508E+000
 -0.19902191E+002 -0.36408648E+002  0.91694928E+000
 -0.36888590E+002 -0.52589522E+002 -0.13889131E+000
 -0.47776109E+002 -0.64393622E+002 -0.28161686E+000
 -0.50592391E+002 -0.69310675E+002  0.37480001E+000
 -0.46865033E+002 -0.66179828E+002  0.87301161E+000
 -0.35663911E+002 -0.54322253E+002  0.10561657E+001
 -0.18550187E+002 -0.36760190E+002  0.66240829E+000
  0.28062866E+001 -0.15142398E+002  0.31648175E-001
VECTORS Vstr_CP double
  0.16637967E+002  0.15668247E+002 -0.99187636E+000
  0.36918539E+002  0.36563133E+002 -0.12286404E+001
  0.53814560E+002  0.52825668E+002 -0.82841086E-001
  0.64358993E+002  0.64881406E+002  0.85610711E-001
  0.66904471E+002  0.69986828E+002 -0.35438134E+000
  0.63345519E+002  0.66753576E+002 -0.59618915E+000
  0.52489300E+002  0.54643031E+002 -0.73120104E+000
  0.35468495E+002  0.36984251E+002 -0.31262064E+000
  0.14297090E+002  0.15098986E+002  0.28698413E-001
VECTORS Vwnd_CP double
  0.17200000E+002  0.00000000E+000  0.00000000E+000
  0.17200000E+002  0.00000000E+000  0.00000000E+000
  0.17200000E+002  0.00000000E+000  0.00000000E+000
  0.17200000E+002  0.00000000E+000  0.00000000E+000
  0.17200000E+002  0.00000000E+000  0.00000000E+000
  0.17200000E+002  0.00000000E+000  0.00000000E+000
  0.17200000E+002  0.00000000E+000  0.00000000E+000
  0.17200000E+002  0.00000000E+000  0.00000000E+000
  0.17200000E+002  0.00000000E+000  0.00000000E+000
VECTORS Tangent double
 -0.46562445E+000 -0.88498231E+000 -0.42256754E-003
 -0.68343262E+000 -0.72999364E+000  0.53983666E-002
 -0.69681232E+000 -0.71724605E+000  0.32694470E-002
 -0.69518179E+000 -0.71883349E+000 -0.83308125E-003
 -0.68863443E+000 -0.72510866E+000 -0.23633067E-003
 -0.69040090E+000 -0.72342676E+000  0.56859750E-003
 -0.69139611E+000 -0.72247561E+000  0.64867622E-003
 -0.68722989E+000 -0.72643990E+000  0.39709089E-003
 -0.68673436E+000 -0.72688897E+000 -0.53248395E-002
VECTORS Normal double
  0.47218660E+000 -0.24883997E+000  0.84564678E+000
  0.46766282E+000 -0.43213183E+000  0.77107300E+000
  0.50652788E+000 -0.48885980E+000  0.71024334E+000
  0.64884888E+000 -0.62799784E+000  0.42966713E+000
  0.72507871E+000 -0.68860295E+000 -0.93189091E-002
  0.65066979E+000 -0.62130858E+000 -0.43658272E+000
  0.51206224E+000 -0.49066731E+000 -0.70500911E+000
  0.46505379E+000 -0.44037204E+000 -0.76798271E+000
  0.37575153E+000 -0.34870458E+000 -0.85861278E+000
VECTORS Orth double
  0.74848760E+000 -0.39355429E+000 -0.53374276E+000
  0.56054558E+000 -0.52950105E+000 -0.63672387E+000
  0.50782093E+000 -0.49656238E+000 -0.70394865E+000
  0.30938229E+000 -0.29815622E+000 -0.90298697E+000
 -0.65944837E-002  0.65886800E-002 -0.99995655E+000
 -0.31618889E+000  0.30104713E+000 -0.89966394E+000
 -0.50967017E+000  0.48710840E+000 -0.70919795E+000
 -0.55806815E+000  0.52759600E+000 -0.64047045E+000
 -0.62225936E+000  0.59163971E+000 -0.51259705E+000
