# vtk DataFile Version 2.0
BldPointCP.BldA
ASCII
 
DATASET POLYDATA
POINTS 9 double
 -0.11202498E+002 -0.20498512E+001  0.10642754E+003
 -0.27609381E+002 -0.50686236E+001  0.94713818E+002
 -0.40625428E+002 -0.74908373E+001  0.82448861E+002
 -0.49406105E+002 -0.91411140E+001  0.70158820E+002
 -0.52254067E+002 -0.96827489E+001  0.58172913E+002
 -0.49412754E+002 -0.91555859E+001  0.46187780E+002
 -0.40631069E+002 -0.75034275E+001  0.33894632E+002
 -0.27629912E+002 -0.50748901E+001  0.21612031E+002
 -0.11274229E+002 -0.20654043E+001  0.98263892E+001
  
POINT_DATA 9
SCALARS Gamma_LL double
LOOKUP_TABLE default
 -0.49032102E+001
 -0.16087013E+003
 -0.14198116E+003
 -0.12539492E+003
 -0.12190390E+003
 -0.11647919E+003
 -0.12383190E+003
 -0.15249490E+003
 -0.73512652E+002
VECTORS Vind_CP double
  0.84122617E-001 -0.23221548E+000  0.10497282E+000
 -0.42014562E+000  0.82525932E-002  0.42677368E+000
 -0.52161316E+000 -0.22717311E-001  0.36953299E+000
 -0.71645979E+000 -0.63918101E-001  0.22929028E+000
 -0.83322098E+000 -0.88440190E-001  0.51377532E-002
 -0.66642417E+000 -0.68783324E-001 -0.19523868E+000
 -0.45346800E+000 -0.27887284E-001 -0.30639935E+000
 -0.43436548E+000 -0.18703923E-001 -0.41870981E+000
 -0.16202729E+000 -0.11885481E-001 -0.65538058E-001
VECTORS Vtot_CP double
  0.11975239E+002  0.19999305E+002 -0.13378583E+001
  0.68384302E+001  0.50619888E+002 -0.26286927E+001
  0.16876447E+001  0.74987278E+002 -0.24703164E+001
 -0.26404335E+001  0.91678161E+002 -0.18262529E+001
 -0.40661028E+001  0.97281693E+002 -0.18632688E+001
 -0.25103252E+001  0.91866967E+002 -0.18445054E+001
  0.18929239E+001  0.75132559E+002 -0.11473988E+001
  0.73276067E+001  0.50674600E+002 -0.52686837E+000
  0.13283898E+002  0.20529855E+002 -0.63425390E-001
VECTORS Vstr_CP double
  0.53088836E+001 -0.20231520E+002  0.14428311E+001
  0.99414242E+001 -0.50611635E+002  0.30554664E+001
  0.14990742E+002 -0.75009996E+002  0.28398494E+001
  0.19123974E+002 -0.91742079E+002  0.20555432E+001
  0.20432882E+002 -0.97370133E+002  0.18684065E+001
  0.19043901E+002 -0.91935750E+002  0.16492667E+001
  0.14853608E+002 -0.75160447E+002  0.84099944E+000
  0.94380279E+001 -0.50693304E+002  0.10815856E+000
  0.37540750E+001 -0.20541741E+002 -0.21126679E-002
VECTORS Vwnd_CP double
  0.17200000E+002  0.00000000E+000  0.00000000E+000
  0.17200000E+002  0.00000000E+000  0.00000000E+000
  0.17200000E+002  0.00000000E+000  0.00000000E+000
  0.17200000E+002  0.00000000E+000  0.00000000E+000
  0.17200000E+002  0.00000000E+000  0.00000000E+000
  0.17200000E+002  0.00000000E+000  0.00000000E+000
  0.17200000E+002  0.00000000E+000  0.00000000E+000
  0.17200000E+002  0.00000000E+000  0.00000000E+000
  0.17200000E+002  0.00000000E+000  0.00000000E+000
VECTORS Tangent double
 -0.82925725E+000  0.55884900E+000 -0.44956874E-002
 -0.18422040E+000  0.98288482E+000  0.52541282E-003
 -0.18348473E+000  0.98302251E+000  0.30454460E-003
 -0.17796966E+000  0.98403561E+000 -0.84909964E-003
 -0.17535931E+000  0.98450448E+000 -0.20281175E-003
 -0.17447737E+000  0.98466112E+000 -0.35951738E-003
 -0.17508085E+000  0.98455405E+000 -0.15904872E-003
 -0.17693869E+000  0.98422181E+000  0.36781355E-003
 -0.17843551E+000  0.98395157E+000  0.27430565E-003
VECTORS Normal double
 -0.36105322E+000 -0.52957987E+000  0.76758435E+000
 -0.63261480E+000 -0.11897898E+000  0.76527284E+000
 -0.70225791E+000 -0.13129577E+000  0.69971083E+000
 -0.88244563E+000 -0.15921445E+000  0.44265163E+000
 -0.98450433E+000 -0.17535916E+000  0.62030597E-003
 -0.88298252E+000 -0.15662197E+000 -0.44250585E+000
 -0.70344115E+000 -0.12520425E+000 -0.69963880E+000
 -0.63533984E+000 -0.11393293E+000 -0.76378176E+000
 -0.50351310E+000 -0.91070479E-001 -0.85917445E+000
VECTORS Orth double
 -0.42658292E+000 -0.63814807E+000 -0.64093218E+000
 -0.75223757E+000 -0.14064648E+000 -0.64370584E+000
 -0.68787148E+000 -0.12817238E+000 -0.71442611E+000
 -0.43544977E+000 -0.79527842E-001 -0.89669327E+000
 -0.57512911E-003 -0.30844548E-003 -0.99999979E+000
  0.43577461E+000  0.76889810E-001 -0.89676555E+000
  0.68885212E+000  0.12238147E+000 -0.71449670E+000
  0.75168875E+000  0.13537623E+000 -0.64547447E+000
  0.84536106E+000  0.15344535E+000 -0.51168271E+000
