# vtk DataFile Version 2.0

ASCII
 
DATASET POLYDATA
POINTS 120 double
  0.11376793E+000  0.24146920E-001  0.11318135E+003
  0.69443446E+001  0.19368118E+002  0.10086050E+003
  0.11822880E+002  0.33101617E+002  0.88723341E+002
  0.15922273E+002  0.44565108E+002  0.76514429E+002
  0.17931526E+002  0.50188457E+002  0.64217275E+002
  0.17922598E+002  0.50152918E+002  0.51960026E+002
  0.15903099E+002  0.44493483E+002  0.39683786E+002
  0.11814276E+002  0.33056411E+002  0.27440545E+002
  0.69186056E+001  0.19352596E+002  0.15261969E+002
  0.18995792E-003  0.51908772E-004  0.30001624E+001
  0.30240499E+001 -0.34080840E+001  0.11318842E+003
  0.11082621E+002  0.17837560E+002  0.10085615E+003
  0.14741965E+002  0.32067434E+002  0.88721294E+002
  0.18240415E+002  0.43755450E+002  0.76514778E+002
  0.20055096E+002  0.49427552E+002  0.64217415E+002
  0.20084689E+002  0.49369535E+002  0.51959772E+002
  0.18354756E+002  0.43626942E+002  0.39683190E+002
  0.15042033E+002  0.31909045E+002  0.27440768E+002
  0.11152753E+002  0.17828786E+002  0.15262432E+002
  0.42374068E+001 -0.15150445E+001  0.30219820E+001
  0.31336614E+001 -0.34611167E+001  0.11318423E+003
  0.11572983E+002  0.17632240E+002  0.10084221E+003
  0.15487930E+002  0.31794212E+002  0.88718286E+002
  0.19195862E+002  0.43416068E+002  0.76512693E+002
  0.21110422E+002  0.49049228E+002  0.64216054E+002
  0.21138563E+002  0.48989556E+002  0.51961771E+002
  0.19307363E+002  0.43283939E+002  0.39686325E+002
  0.15784821E+002  0.31629741E+002  0.27444316E+002
  0.11642631E+002  0.17622281E+002  0.15266221E+002
  0.43801135E+001 -0.15907663E+001  0.30283688E+001
  0.32202022E+001 -0.35149521E+001  0.11317905E+003
  0.12056028E+002  0.17428173E+002  0.10084858E+003
  0.16225130E+002  0.31496196E+002  0.88715878E+002
  0.20140355E+002  0.43038655E+002  0.76501904E+002
  0.22163456E+002  0.48653064E+002  0.64214953E+002
  0.22192102E+002  0.48601654E+002  0.51965257E+002
  0.20253175E+002  0.42920971E+002  0.39695927E+002
  0.16520622E+002  0.31333239E+002  0.27454469E+002
  0.12129656E+002  0.17411752E+002  0.15268003E+002
  0.45216738E+001 -0.16659138E+001  0.30316142E+001
  0.33078877E+001 -0.35672573E+001  0.11317495E+003
  0.12537134E+002  0.17219012E+002  0.10085921E+003
  0.16957197E+002  0.31188379E+002  0.88713491E+002
  0.21077546E+002  0.42649482E+002  0.76491594E+002
  0.23209770E+002  0.48245067E+002  0.64214302E+002
  0.23239640E+002  0.48201402E+002  0.51967760E+002
  0.21192891E+002  0.42545663E+002  0.39704056E+002
  0.17251433E+002  0.31027545E+002  0.27463012E+002
  0.12613463E+002  0.17196637E+002  0.15268267E+002
  0.46622162E+001 -0.17404629E+001  0.30297212E+001
  0.33968788E+001 -0.36180933E+001  0.11317198E+003
  0.13015995E+002  0.17004640E+002  0.10087387E+003
  0.17684081E+002  0.30871465E+002  0.88711511E+002
  0.22008085E+002  0.42250542E+002  0.76482993E+002
  0.24249864E+002  0.47826880E+002  0.64214684E+002
  0.24281212E+002  0.47789549E+002  0.51969049E+002
  0.22126268E+002  0.42158260E+002  0.39710531E+002
  0.17977079E+002  0.30712698E+002  0.27469825E+002
  0.13093966E+002  0.16976951E+002  0.15266688E+002
  0.48016938E+001 -0.18144964E+001  0.30272957E+001
  0.34873164E+001 -0.36675017E+001  0.11317027E+003
  0.13492301E+002  0.16784793E+002  0.10089108E+003
  0.18405244E+002  0.30545052E+002  0.88709001E+002
  0.22930993E+002  0.41839972E+002  0.76474693E+002
  0.25282626E+002  0.47396172E+002  0.64215120E+002
  0.25316255E+002  0.47365371E+002  0.51969141E+002
  0.23053077E+002  0.41759089E+002  0.39714892E+002
  0.18697496E+002  0.30389080E+002  0.27474561E+002
  0.13571003E+002  0.16752550E+002  0.15263271E+002
  0.49400884E+001 -0.18880192E+001  0.30244994E+001
  0.35809455E+001 -0.37124294E+001  0.11316357E+003
  0.13965651E+002  0.16559142E+002  0.10090888E+003
  0.19121113E+002  0.30211245E+002  0.88707681E+002
  0.23847393E+002  0.41420670E+002  0.76469273E+002
  0.26307509E+002  0.46951967E+002  0.64216013E+002
  0.26343532E+002  0.46926677E+002  0.51968215E+002
  0.23972674E+002  0.41347650E+002  0.39717423E+002
  0.19412355E+002  0.30056552E+002  0.27477487E+002
  0.14044354E+002  0.16523179E+002  0.15258246E+002
  0.50773577E+001 -0.19610213E+001  0.30215263E+001
  0.36743799E+001 -0.37597514E+001  0.11316455E+003
  0.14435058E+002  0.16326116E+002  0.10092337E+003
  0.19831058E+002  0.29869588E+002  0.88706275E+002
  0.24756428E+002  0.40990756E+002  0.76465269E+002
  0.27322874E+002  0.46490935E+002  0.64216481E+002
  0.27360961E+002  0.46469728E+002  0.51967218E+002
  0.24884035E+002  0.40922617E+002  0.39718921E+002
  0.20121304E+002  0.29715072E+002  0.27478981E+002
  0.14513700E+002  0.16288387E+002  0.15252371E+002
  0.52134055E+001 -0.20334927E+001  0.30186838E+001
  0.37701431E+001 -0.38049489E+001  0.11316304E+003
  0.14900444E+002  0.16086931E+002  0.10093461E+003
  0.20534337E+002  0.29519486E+002  0.88703161E+002
  0.25657988E+002  0.40549792E+002  0.76462552E+002
  0.28327334E+002  0.46010730E+002  0.64216379E+002
  0.28366493E+002  0.45991409E+002  0.51966530E+002
  0.25786388E+002  0.40483117E+002  0.39719923E+002
  0.20823055E+002  0.29362679E+002  0.27482000E+002
  0.14977240E+002  0.16045075E+002  0.15249754E+002
  0.53481318E+001 -0.21053748E+001  0.30162867E+001
  0.38686936E+001 -0.38484756E+001  0.11316414E+003
  0.15361060E+002  0.15841828E+002  0.10094218E+003
  0.21232390E+002  0.29164189E+002  0.88701526E+002
  0.26552470E+002  0.40098299E+002  0.76460783E+002
  0.29321099E+002  0.45512582E+002  0.64215505E+002
  0.29359637E+002  0.45491678E+002  0.51966755E+002
  0.26680112E+002  0.40030244E+002  0.39720900E+002
  0.21519165E+002  0.29003515E+002  0.27482788E+002
  0.15437002E+002  0.15798508E+002  0.15244704E+002
  0.54815721E+001 -0.21765499E+001  0.30146895E+001
  0.39697781E+001 -0.38896992E+001  0.11316360E+003
  0.15817006E+002  0.15591909E+002  0.10094592E+003
  0.21926001E+002  0.28804128E+002  0.88701933E+002
  0.27441387E+002  0.39639226E+002  0.76460567E+002
  0.30305758E+002  0.44999907E+002  0.64214688E+002
  0.30344390E+002  0.44979297E+002  0.51967451E+002
  0.27567722E+002  0.39568877E+002  0.39720911E+002
  0.22210392E+002  0.28639078E+002  0.27481220E+002
  0.15891951E+002  0.15546779E+002  0.15241726E+002
  0.56137717E+001 -0.22469867E+001  0.30139393E+001
  
POLYGONS 99 495
      4      0      1     11     10
      4      1      2     12     11
      4      2      3     13     12
      4      3      4     14     13
      4      4      5     15     14
      4      5      6     16     15
      4      6      7     17     16
      4      7      8     18     17
      4      8      9     19     18
      4     10     11     21     20
      4     11     12     22     21
      4     12     13     23     22
      4     13     14     24     23
      4     14     15     25     24
      4     15     16     26     25
      4     16     17     27     26
      4     17     18     28     27
      4     18     19     29     28
      4     20     21     31     30
      4     21     22     32     31
      4     22     23     33     32
      4     23     24     34     33
      4     24     25     35     34
      4     25     26     36     35
      4     26     27     37     36
      4     27     28     38     37
      4     28     29     39     38
      4     30     31     41     40
      4     31     32     42     41
      4     32     33     43     42
      4     33     34     44     43
      4     34     35     45     44
      4     35     36     46     45
      4     36     37     47     46
      4     37     38     48     47
      4     38     39     49     48
      4     40     41     51     50
      4     41     42     52     51
      4     42     43     53     52
      4     43     44     54     53
      4     44     45     55     54
      4     45     46     56     55
      4     46     47     57     56
      4     47     48     58     57
      4     48     49     59     58
      4     50     51     61     60
      4     51     52     62     61
      4     52     53     63     62
      4     53     54     64     63
      4     54     55     65     64
      4     55     56     66     65
      4     56     57     67     66
      4     57     58     68     67
      4     58     59     69     68
      4     60     61     71     70
      4     61     62     72     71
      4     62     63     73     72
      4     63     64     74     73
      4     64     65     75     74
      4     65     66     76     75
      4     66     67     77     76
      4     67     68     78     77
      4     68     69     79     78
      4     70     71     81     80
      4     71     72     82     81
      4     72     73     83     82
      4     73     74     84     83
      4     74     75     85     84
      4     75     76     86     85
      4     76     77     87     86
      4     77     78     88     87
      4     78     79     89     88
      4     80     81     91     90
      4     81     82     92     91
      4     82     83     93     92
      4     83     84     94     93
      4     84     85     95     94
      4     85     86     96     95
      4     86     87     97     96
      4     87     88     98     97
      4     88     89     99     98
      4     90     91    101    100
      4     91     92    102    101
      4     92     93    103    102
      4     93     94    104    103
      4     94     95    105    104
      4     95     96    106    105
      4     96     97    107    106
      4     97     98    108    107
      4     98     99    109    108
      4    100    101    111    110
      4    101    102    112    111
      4    102    103    113    112
      4    103    104    114    113
      4    104    105    115    114
      4    105    106    116    115
      4    106    107    117    116
      4    107    108    118    117
      4    108    109    119    118
  
CELL_DATA 99
SCALARS Gamma double
LOOKUP_TABLE default
  0.11584946E+003
  0.53889910E+002
  0.22034558E+002
  0.34943631E+002
  0.56351422E+002
  0.48276938E+002
  0.34641044E+002
  0.49032144E+002
  0.56108493E+002
  0.11584946E+003
  0.53889910E+002
  0.22034558E+002
  0.34943631E+002
  0.56351422E+002
  0.48276938E+002
  0.34641044E+002
  0.49032144E+002
  0.56108493E+002
  0.11260791E+003
  0.55118972E+002
  0.23710119E+002
  0.36574781E+002
  0.57627379E+002
  0.49673087E+002
  0.36249274E+002
  0.50634756E+002
  0.57102687E+002
  0.10000560E+003
  0.49889924E+002
  0.22951288E+002
  0.35053800E+002
  0.52787068E+002
  0.45703218E+002
  0.34215870E+002
  0.47591404E+002
  0.52785673E+002
  0.80240252E+002
  0.41003710E+002
  0.20324579E+002
  0.30230284E+002
  0.43423174E+002
  0.37859980E+002
  0.29248693E+002
  0.40490246E+002
  0.44129981E+002
  0.57999852E+002
  0.30493256E+002
  0.16374694E+002
  0.23384678E+002
  0.31974723E+002
  0.28167340E+002
  0.22576558E+002
  0.31041105E+002
  0.33225043E+002
  0.35761694E+002
  0.19421458E+002
  0.11297451E+002
  0.15331624E+002
  0.19929530E+002
  0.17800053E+002
  0.14857698E+002
  0.20276385E+002
  0.21328000E+002
  0.15959946E+002
  0.89899100E+001
  0.56573961E+001
  0.72274289E+001
  0.89183685E+001
  0.81136264E+001
  0.70842443E+001
  0.95628548E+001
  0.98835952E+001
  0.32256505E+001
  0.18979344E+001
  0.12865983E+001
  0.15436262E+001
  0.18072758E+001
  0.16817938E+001
  0.15339126E+001
  0.20388992E+001
  0.20787311E+001
  0.37831218E-001
  0.23374740E-001
  0.16846978E-001
  0.18749696E-001
  0.20843277E-001
  0.19884976E-001
  0.19074689E-001
  0.25027292E-001
  0.25240302E-001
  0.00000000E+000
  0.00000000E+000
  0.00000000E+000
  0.00000000E+000
  0.00000000E+000
  0.00000000E+000
  0.00000000E+000
  0.00000000E+000
  0.00000000E+000
POINT_DATA 120
VECTORS Uconv double
  0.00000000E+000  0.00000000E+000  0.00000000E+000
  0.00000000E+000  0.00000000E+000  0.00000000E+000
  0.00000000E+000  0.00000000E+000  0.00000000E+000
  0.00000000E+000  0.00000000E+000  0.00000000E+000
  0.00000000E+000  0.00000000E+000  0.00000000E+000
  0.00000000E+000  0.00000000E+000  0.00000000E+000
  0.00000000E+000  0.00000000E+000  0.00000000E+000
  0.00000000E+000  0.00000000E+000  0.00000000E+000
  0.00000000E+000  0.00000000E+000  0.00000000E+000
  0.00000000E+000  0.00000000E+000  0.00000000E+000
  0.00000000E+000  0.00000000E+000  0.00000000E+000
  0.00000000E+000  0.00000000E+000  0.00000000E+000
  0.00000000E+000  0.00000000E+000  0.00000000E+000
  0.00000000E+000  0.00000000E+000  0.00000000E+000
  0.00000000E+000  0.00000000E+000  0.00000000E+000
  0.00000000E+000  0.00000000E+000  0.00000000E+000
  0.00000000E+000  0.00000000E+000  0.00000000E+000
  0.00000000E+000  0.00000000E+000  0.00000000E+000
  0.00000000E+000  0.00000000E+000  0.00000000E+000
  0.00000000E+000  0.00000000E+000  0.00000000E+000
  0.17148459E+002  0.88016432E-001 -0.41869473E+000
  0.17089101E+002 -0.28205736E+000 -0.13933057E+001
  0.17079399E+002 -0.25062016E+000 -0.30076110E+000
  0.17033457E+002 -0.37560242E+000 -0.20849667E+000
  0.16834663E+002 -0.90956764E+000 -0.13607466E+000
  0.16794658E+002 -0.10231615E+001  0.19990340E+000
  0.16982785E+002 -0.53430835E+000  0.31345973E+000
  0.17051994E+002 -0.32090889E+000  0.35475434E+000
  0.17057620E+002 -0.27429635E+000  0.37890913E+000
  0.17068119E+002  0.35156819E-001  0.63868899E+000
  0.17152393E+002  0.97415943E-001 -0.41623148E+000
  0.17108616E+002 -0.24392488E+000 -0.11450483E+001
  0.17095070E+002 -0.21460001E+000 -0.25643739E+000
  0.17044715E+002 -0.35200737E+000 -0.19042331E+000
  0.16851330E+002 -0.86376543E+000 -0.13117264E+000
  0.16813841E+002 -0.96746057E+000  0.19013877E+000
  0.16998925E+002 -0.49363365E+000  0.28377002E+000
  0.17069540E+002 -0.28059176E+000  0.30417709E+000
  0.17072870E+002 -0.23921967E+000  0.33518123E+000
  0.17069726E+002  0.35851105E-001  0.61471751E+000
  0.17156229E+002  0.10702872E+000 -0.41394635E+000
  0.17128706E+002 -0.20453753E+000 -0.91845926E+000
  0.17115497E+002 -0.16947745E+000 -0.20087999E+000
  0.17068795E+002 -0.30054527E+000 -0.15473562E+000
  0.16902274E+002 -0.73576400E+000 -0.11257190E+000
  0.16870563E+002 -0.82118642E+000  0.16278935E+000
  0.17030918E+002 -0.41679379E+000  0.23150108E+000
  0.17091790E+002 -0.23129227E+000  0.24515263E+000
  0.17089768E+002 -0.20207451E+000  0.28961934E+000
  0.17075464E+002  0.43697082E-001  0.59161380E+000
  0.17159970E+002  0.11686256E+000 -0.41181102E+000
  0.17146893E+002 -0.16182495E+000 -0.67899407E+000
  0.17139942E+002 -0.11718337E+000 -0.13638652E+000
  0.17104837E+002 -0.22385338E+000 -0.10301220E+000
  0.16984152E+002 -0.53623102E+000 -0.81644671E-001
  0.16961101E+002 -0.59692672E+000  0.11871404E+000
  0.17077345E+002 -0.30910534E+000  0.16006058E+000
  0.17117777E+002 -0.17532501E+000  0.17785728E+000
  0.17107654E+002 -0.16360529E+000  0.23706256E+000
  0.17081157E+002  0.51548374E-001  0.56999023E+000
  0.17163617E+002  0.12692497E+000 -0.40979429E+000
  0.17163349E+002 -0.11715308E+000 -0.44066584E+000
  0.17133680E+002 -0.14374729E+000 -0.15562810E+000
  0.17114934E+002 -0.21548938E+000 -0.13202593E+000
  0.17087083E+002 -0.29627194E+000 -0.42393617E-001
  0.17073470E+002 -0.32936190E+000  0.64370556E-001
  0.17133214E+002 -0.18343917E+000  0.77494763E-001
  0.17146077E+002 -0.11588725E+000  0.10605943E+000
  0.17126029E+002 -0.12478940E+000  0.17844642E+000
  0.17086754E+002  0.59333207E-001  0.54970507E+000
  0.17322269E+002  0.44265033E+000 -0.99542360E+000
  0.17178642E+002 -0.72342452E-001 -0.21752286E+000
  0.17163802E+002 -0.81067374E-001 -0.78821153E-001
  0.17164803E+002 -0.11162997E+000 -0.60244411E-001
  0.17193871E+002 -0.57459349E-001  0.26162575E-002
  0.17189287E+002 -0.65514191E-001  0.75998554E-002
  0.17191238E+002 -0.57160620E-001 -0.53570950E-002
  0.17175111E+002 -0.56553381E-001  0.33993147E-001
  0.17144453E+002 -0.86639785E-001  0.11551526E+000
  0.17092292E+002  0.67107269E-001  0.53069247E+000
  0.17283710E+002  0.37317101E+000 -0.87267277E+000
  0.17190916E+002 -0.37670625E-001 -0.46386463E-001
  0.17193935E+002 -0.20172396E-001 -0.14103452E-001
  0.17212676E+002 -0.14685293E-001  0.79916908E-002
  0.17287548E+002  0.14088444E+000  0.39585823E-001
  0.17290330E+002  0.15137794E+000 -0.40603157E-001
  0.17244193E+002  0.53341240E-001 -0.78492849E-001
  0.17203281E+002 -0.73777977E-003 -0.34229287E-001
  0.17165818E+002 -0.53752198E-001  0.59258311E-001
  0.17097720E+002  0.74796430E-001  0.51284507E+000
  0.17242119E+002  0.30262383E+000 -0.79983795E+000
  0.17205815E+002 -0.60485367E-003  0.83199103E-001
  0.17222799E+002  0.35764288E-001  0.56700217E-001
  0.17252939E+002  0.64067030E-001  0.64819830E-001
  0.17355674E+002  0.27430868E+000  0.67032696E-001
  0.17362942E+002  0.29736327E+000 -0.76384832E-001
  0.17286420E+002  0.13679600E+000 -0.13455464E+000
  0.17229543E+002  0.48598296E-001 -0.95140467E-001
  0.17183480E+002 -0.20139826E-001  0.19823366E-002
  0.17103019E+002  0.82369734E-001  0.49608892E+000
  0.17233158E+002  0.28871656E+000 -0.73995028E+000
  0.17223449E+002  0.39111752E-001  0.22198504E+000
  0.17248144E+002  0.83621852E-001  0.11750472E+000
  0.17282389E+002  0.11917382E+000  0.10603028E+000
  0.17393778E+002  0.33974929E+000  0.82765715E-001
  0.17399198E+002  0.35465810E+000 -0.94741859E-001
  0.17315173E+002  0.18965327E+000 -0.17083690E+000
  0.17251784E+002  0.89175089E-001 -0.13947910E+000
  0.17200066E+002  0.10882480E-001 -0.57730224E-001
  0.17107918E+002  0.89387935E-001  0.47848068E+000
  0.17232611E+002  0.29586387E+000 -0.83140761E+000
  0.17240696E+002  0.76233743E-001  0.27163750E+000
  0.17268820E+002  0.12197267E+000  0.16440465E+000
  0.17300249E+002  0.15125623E+000  0.13134545E+000
  0.17405818E+002  0.35171770E+000  0.87864561E-001
  0.17414489E+002  0.37270943E+000 -0.10130201E+000
  0.17330458E+002  0.21507185E+000 -0.18867611E+000
  0.17269990E+002  0.12142995E+000 -0.18086837E+000
  0.17214982E+002  0.38355572E-001 -0.10733992E+000
  0.17112065E+002  0.95022429E-001  0.46423698E+000
