# vtk DataFile Version 2.0
BldPointCP.BldB
ASCII
 
DATASET POLYDATA
POINTS 9 double
  0.44636529E+001  0.10578250E+002  0.10633208E+003
  0.10886890E+002  0.25938527E+002  0.94559428E+002
  0.16032878E+002  0.38203098E+002  0.82351142E+002
  0.19507654E+002  0.46475239E+002  0.70089949E+002
  0.20621206E+002  0.49128554E+002  0.58091185E+002
  0.19498921E+002  0.46454177E+002  0.46096576E+002
  0.16024310E+002  0.38177849E+002  0.33834159E+002
  0.10879992E+002  0.25922891E+002  0.21609186E+002
  0.44361526E+001  0.10568674E+002  0.98360515E+001
  
POINT_DATA 9
SCALARS Gamma_LL double
LOOKUP_TABLE default
  0.80502563E+002
  0.40282659E+002
  0.21054056E+002
  0.30589626E+002
  0.42331236E+002
  0.37138598E+002
  0.29477723E+002
  0.40889097E+002
  0.44159041E+002
VECTORS Vind_CP double
 -0.61951249E-002 -0.51497590E-001 -0.26597410E+000
 -0.32390990E-001 -0.49357705E-001 -0.81823022E-001
 -0.14033328E-001 -0.30408569E-001 -0.73020040E-002
 -0.41219013E-001 -0.13033551E+000 -0.30968006E-001
 -0.84929072E-001 -0.24940635E+000  0.24087541E-002
 -0.57347635E-001 -0.17094147E+000  0.54697230E-001
 -0.29177199E-001 -0.74210034E-001  0.45586757E-001
 -0.42961118E-001 -0.91487863E-001  0.97847647E-001
 -0.46613154E-001 -0.43326706E-001  0.11720938E+000
VECTORS Vtot_CP double
  0.35205795E+002 -0.83071478E+001  0.38322894E+000
  0.63379472E+002 -0.20715227E+002  0.25105446E+000
  0.85499127E+002 -0.30823089E+002 -0.71134098E+000
  0.10074501E+003 -0.36308288E+002 -0.49197432E+000
  0.10585399E+003 -0.37405383E+002  0.78260433E-001
  0.10092496E+003 -0.35574853E+002  0.49611759E+000
  0.85753535E+002 -0.29781989E+002  0.77815552E+000
  0.63719785E+002 -0.20164595E+002  0.34948098E+000
  0.36193869E+002 -0.80373175E+001 -0.17331133E-001
VECTORS Vstr_CP double
 -0.18011990E+002  0.82556502E+001 -0.64920304E+000
 -0.46211863E+002  0.20665870E+002 -0.33287748E+000
 -0.68313161E+002  0.30792680E+002  0.70403898E+000
 -0.83586226E+002  0.36177953E+002  0.46100632E+000
 -0.88738915E+002  0.37155977E+002 -0.75851679E-001
 -0.83782303E+002  0.35403911E+002 -0.44142035E+000
 -0.68582712E+002  0.29707779E+002 -0.73256876E+000
 -0.46562746E+002  0.20073107E+002 -0.25163333E+000
 -0.19040482E+002  0.79939907E+001  0.13454051E+000
VECTORS Vwnd_CP double
  0.17200000E+002  0.00000000E+000  0.00000000E+000
  0.17200000E+002  0.00000000E+000  0.00000000E+000
  0.17200000E+002  0.00000000E+000  0.00000000E+000
  0.17200000E+002  0.00000000E+000  0.00000000E+000
  0.17200000E+002  0.00000000E+000  0.00000000E+000
  0.17200000E+002  0.00000000E+000  0.00000000E+000
  0.17200000E+002  0.00000000E+000  0.00000000E+000
  0.17200000E+002  0.00000000E+000  0.00000000E+000
  0.17200000E+002  0.00000000E+000  0.00000000E+000
VECTORS Tangent double
  0.78723202E+000 -0.61665689E+000  0.15663094E-003
  0.92109180E+000 -0.38934546E+000 -0.12265390E-003
  0.92303983E+000 -0.38470434E+000  0.20631741E-003
  0.92270104E+000 -0.38551622E+000  0.18313864E-003
  0.92168618E+000 -0.38793631E+000 -0.40694969E-004
  0.92223359E+000 -0.38663311E+000 -0.20568650E-003
  0.92264044E+000 -0.38566126E+000 -0.67903006E-004
  0.92191484E+000 -0.38739260E+000  0.76974677E-004
  0.92181459E+000 -0.38762888E+000  0.13063525E-002
VECTORS Normal double
  0.32498063E+000  0.41509024E+000  0.84975742E+000
  0.25014706E+000  0.59154251E+000  0.76648803E+000
  0.27270957E+000  0.65470343E+000  0.70497724E+000
  0.34593885E+000  0.82818538E+000  0.44094816E+000
  0.38793595E+000  0.92168547E+000 -0.12640530E-002
  0.34671281E+000  0.82724714E+000 -0.44209999E+000
  0.27370819E+000  0.65493246E+000 -0.70437724E+000
  0.24922542E+000  0.59295317E+000 -0.76569787E+000
  0.19958775E+000  0.47174229E+000 -0.85885036E+000
VECTORS Orth double
  0.52407379E+000  0.66890535E+000 -0.52717388E+000
  0.29835608E+000  0.70603652E+000 -0.64225858E+000
  0.27134288E+000  0.65066581E+000 -0.70922990E+000
  0.17014434E+000  0.40679997E+000 -0.89753255E+000
 -0.52788003E-003 -0.11492732E-002 -0.99999920E+000
 -0.17110065E+000 -0.40764815E+000 -0.89696575E+000
 -0.27169549E+000 -0.64986835E+000 -0.70982582E+000
 -0.29658005E+000 -0.70592741E+000 -0.64320041E+000
 -0.33229894E+000 -0.79196153E+000 -0.51222491E+000
