# vtk DataFile Version 2.0

ASCII
 
DATASET POLYDATA
POINTS 150 double
  0.19238526E+000  0.43325007E-001  0.11318111E+003
  0.59166828E+001  0.19719489E+002  0.10081863E+003
  0.10027851E+002  0.33733362E+002  0.88722678E+002
  0.13493697E+002  0.45426677E+002  0.76540297E+002
  0.15176946E+002  0.51097538E+002  0.64216233E+002
  0.15170484E+002  0.51032538E+002  0.51954507E+002
  0.13475802E+002  0.45302019E+002  0.39663376E+002
  0.10015748E+002  0.33665006E+002  0.27417820E+002
  0.58630432E+001  0.19698080E+002  0.15263383E+002
  0.18005184E-003  0.47447191E-004  0.30001810E+001
  0.32804492E+001 -0.32298508E+001  0.11319457E+003
  0.10124343E+002  0.18391525E+002  0.10081101E+003
  0.12998473E+002  0.32858166E+002  0.88716538E+002
  0.15854623E+002  0.44751877E+002  0.76539004E+002
  0.17338310E+002  0.50451756E+002  0.64216192E+002
  0.17370303E+002  0.50362372E+002  0.51954191E+002
  0.15971587E+002  0.44572243E+002  0.39662670E+002
  0.13301511E+002  0.32696179E+002  0.27417944E+002
  0.10172802E+002  0.18403485E+002  0.15263897E+002
  0.43127849E+001 -0.12846105E+001  0.30332481E+001
  0.33931263E+001 -0.32876752E+001  0.11318984E+003
  0.10624195E+002  0.18201980E+002  0.10079416E+003
  0.13758798E+002  0.32615675E+002  0.88712939E+002
  0.16828951E+002  0.44456618E+002  0.76537864E+002
  0.18413295E+002  0.50123855E+002  0.64215604E+002
  0.18443277E+002  0.50032654E+002  0.51955510E+002
  0.16941857E+002  0.44272628E+002  0.39665574E+002
  0.14058407E+002  0.32447153E+002  0.27422443E+002
  0.10672874E+002  0.18213606E+002  0.15267954E+002
  0.44593732E+001 -0.13619340E+001  0.30403827E+001
  0.34774758E+001 -0.33462196E+001  0.11318320E+003
  0.11112957E+002  0.18013931E+002  0.10079351E+003
  0.14510726E+002  0.32350206E+002  0.88712017E+002
  0.17795881E+002  0.44120778E+002  0.76528431E+002
  0.19487917E+002  0.49771670E+002  0.64214777E+002
  0.19515993E+002  0.49689798E+002  0.51959644E+002
  0.17905989E+002  0.43951536E+002  0.39676083E+002
  0.14809001E+002  0.32181176E+002  0.27434263E+002
  0.11169875E+002  0.18018642E+002  0.15271673E+002
  0.46048266E+001 -0.14383967E+001  0.30432691E+001
  0.35626168E+001 -0.34025867E+001  0.11317476E+003
  0.11600147E+002  0.17820947E+002  0.10079636E+003
  0.15258066E+002  0.32073889E+002  0.88710942E+002
  0.18755270E+002  0.43769864E+002  0.76517957E+002
  0.20555602E+002  0.49404379E+002  0.64213661E+002
  0.20582647E+002  0.49331846E+002  0.51963788E+002
  0.18864036E+002  0.43615667E+002  0.39686947E+002
  0.15554856E+002  0.31904944E+002  0.27445630E+002
  0.11663671E+002  0.17818565E+002  0.15274985E+002
  0.47492530E+001 -0.15138294E+001  0.30457175E+001
  0.36481510E+001 -0.34580506E+001  0.11316864E+003
  0.12085702E+002  0.17622901E+002  0.10080186E+003
  0.16000425E+002  0.31786572E+002  0.88709254E+002
  0.19707391E+002  0.43405587E+002  0.76507459E+002
  0.21615714E+002  0.49021531E+002  0.64212446E+002
  0.21642501E+002  0.48957879E+002  0.51967712E+002
  0.19816384E+002  0.43266622E+002  0.39696698E+002
  0.16295899E+002  0.31618803E+002  0.27456141E+002
  0.12154276E+002  0.17613628E+002  0.15277501E+002
  0.48919340E+001 -0.15896565E+001  0.30476640E+001
  0.37347027E+001 -0.35119272E+001  0.11316577E+003
  0.12569376E+002  0.17420012E+002  0.10081408E+003
  0.16738061E+002  0.31489526E+002  0.88708091E+002
  0.20652178E+002  0.43028695E+002  0.76497041E+002
  0.22669369E+002  0.48626912E+002  0.64211465E+002
  0.22696794E+002  0.48571981E+002  0.51970854E+002
  0.20762724E+002  0.42904855E+002  0.39705452E+002
  0.17032187E+002  0.31323407E+002  0.27464945E+002
  0.12641731E+002  0.17404085E+002  0.15278462E+002
  0.50336196E+001 -0.16646391E+001  0.30502300E+001
  0.38225078E+001 -0.35639246E+001  0.11316172E+003
  0.13051058E+002  0.17212112E+002  0.10083110E+003
  0.17470414E+002  0.31182171E+002  0.88706415E+002
  0.21589675E+002  0.42639936E+002  0.76486683E+002
  0.23717234E+002  0.48222784E+002  0.64211255E+002
  0.23746103E+002  0.48176286E+002  0.51972551E+002
  0.21702964E+002  0.42530545E+002  0.39713344E+002
  0.17763214E+002  0.31017973E+002  0.27473092E+002
  0.13126021E+002  0.17190025E+002  0.15277687E+002
  0.51743349E+001 -0.17389490E+001  0.30476953E+001
  0.39116156E+001 -0.36144455E+001  0.11315879E+003
  0.13530368E+002  0.16998949E+002  0.10085237E+003
  0.18197680E+002  0.30865931E+002  0.88705405E+002
  0.22520354E+002  0.42240872E+002  0.76477885E+002
  0.24758235E+002  0.47806289E+002  0.64211141E+002
  0.24788445E+002  0.47765754E+002  0.51974510E+002
  0.22636621E+002  0.42143326E+002  0.39719871E+002
  0.18489193E+002  0.30703669E+002  0.27479100E+002
  0.13607076E+002  0.16971413E+002  0.15274809E+002
  0.53143037E+001 -0.18121403E+001  0.30446333E+001
  0.40035033E+001 -0.36608170E+001  0.11315015E+003
  0.14007106E+002  0.16780478E+002  0.10087678E+003
  0.18919639E+002  0.30541197E+002  0.88704791E+002
  0.23444060E+002  0.41831824E+002  0.76470755E+002
  0.25794056E+002  0.47382982E+002  0.64212775E+002
  0.25826889E+002  0.47350042E+002  0.51972843E+002
  0.23564589E+002  0.41746619E+002  0.39722231E+002
  0.19210541E+002  0.30382089E+002  0.27481490E+002
  0.14084686E+002  0.16748100E+002  0.15269804E+002
  0.54533451E+001 -0.18845228E+001  0.30413076E+001
  0.40962509E+001 -0.37067857E+001  0.11314149E+003
  0.14480715E+002  0.16555820E+002  0.10090067E+003
  0.19636347E+002  0.30209125E+002  0.88705652E+002
  0.24361854E+002  0.41415514E+002  0.76467262E+002
  0.26821946E+002  0.46945778E+002  0.64215028E+002
  0.26857471E+002  0.46919238E+002  0.51970142E+002
  0.24486129E+002  0.41339605E+002  0.39721740E+002
  0.19926392E+002  0.30051677E+002  0.27481891E+002
  0.14558604E+002  0.16519785E+002  0.15263152E+002
  0.55905795E+001 -0.19576702E+001  0.30377897E+001
  0.41902433E+001 -0.37532210E+001  0.11314449E+003
  0.14950553E+002  0.16324117E+002  0.10092126E+003
  0.20347132E+002  0.29869148E+002  0.88706200E+002
  0.25272223E+002  0.40988389E+002  0.76465103E+002
  0.27839882E+002  0.46490442E+002  0.64216592E+002
  0.27877706E+002  0.46468663E+002  0.51967633E+002
  0.25399314E+002  0.40918579E+002  0.39720414E+002
  0.20636323E+002  0.29712236E+002  0.27480980E+002
  0.15028486E+002  0.16286056E+002  0.15255402E+002
  0.57268364E+001 -0.20298227E+001  0.30344554E+001
  0.42869436E+001 -0.37962789E+001  0.11314174E+003
  0.15416449E+002  0.16086245E+002  0.10093637E+003
  0.21051201E+002  0.29520572E+002  0.88705030E+002
  0.26174926E+002  0.40549746E+002  0.76463907E+002
  0.28846253E+002  0.46014205E+002  0.64217356E+002
  0.28885323E+002  0.45994796E+002  0.51965767E+002
  0.26303216E+002  0.40482348E+002  0.39719085E+002
  0.21339008E+002  0.29361699E+002  0.27481807E+002
  0.15492553E+002  0.16043740E+002  0.15250961E+002
  0.58616035E+001 -0.21016997E+001  0.30315613E+001
  0.43856925E+001 -0.38390999E+001  0.11313929E+003
  0.15877598E+002  0.15842373E+002  0.10094907E+003
  0.21749955E+002  0.29166589E+002  0.88704998E+002
  0.27070289E+002  0.40099984E+002  0.76463320E+002
  0.29841222E+002  0.45518366E+002  0.64217099E+002
  0.29879815E+002  0.45497652E+002  0.51965203E+002
  0.27198091E+002  0.40031978E+002  0.39718187E+002
  0.22035940E+002  0.29004128E+002  0.27480712E+002
  0.15952790E+002  0.15798084E+002  0.15244111E+002
  0.59950452E+001 -0.21729400E+001  0.30294995E+001
  0.44870637E+001 -0.38793256E+001  0.11313596E+003
  0.16334074E+002  0.15593593E+002  0.10095451E+003
  0.22444150E+002  0.28807586E+002  0.88706629E+002
  0.27959801E+002  0.39642045E+002  0.76463837E+002
  0.30826474E+002  0.45006704E+002  0.64216575E+002
  0.30865174E+002  0.44986290E+002  0.51965534E+002
  0.28086471E+002  0.39572213E+002  0.39717054E+002
  0.22727851E+002  0.28640989E+002  0.27477593E+002
  0.16408190E+002  0.15547180E+002  0.15239555E+002
  0.61274049E+001 -0.22431415E+001  0.30283467E+001
  
POLYGONS 126 630
      4      0      1     11     10
      4      1      2     12     11
      4      2      3     13     12
      4      3      4     14     13
      4      4      5     15     14
      4      5      6     16     15
      4      6      7     17     16
      4      7      8     18     17
      4      8      9     19     18
      4     10     11     21     20
      4     11     12     22     21
      4     12     13     23     22
      4     13     14     24     23
      4     14     15     25     24
      4     15     16     26     25
      4     16     17     27     26
      4     17     18     28     27
      4     18     19     29     28
      4     20     21     31     30
      4     21     22     32     31
      4     22     23     33     32
      4     23     24     34     33
      4     24     25     35     34
      4     25     26     36     35
      4     26     27     37     36
      4     27     28     38     37
      4     28     29     39     38
      4     30     31     41     40
      4     31     32     42     41
      4     32     33     43     42
      4     33     34     44     43
      4     34     35     45     44
      4     35     36     46     45
      4     36     37     47     46
      4     37     38     48     47
      4     38     39     49     48
      4     40     41     51     50
      4     41     42     52     51
      4     42     43     53     52
      4     43     44     54     53
      4     44     45     55     54
      4     45     46     56     55
      4     46     47     57     56
      4     47     48     58     57
      4     48     49     59     58
      4     50     51     61     60
      4     51     52     62     61
      4     52     53     63     62
      4     53     54     64     63
      4     54     55     65     64
      4     55     56     66     65
      4     56     57     67     66
      4     57     58     68     67
      4     58     59     69     68
      4     60     61     71     70
      4     61     62     72     71
      4     62     63     73     72
      4     63     64     74     73
      4     64     65     75     74
      4     65     66     76     75
      4     66     67     77     76
      4     67     68     78     77
      4     68     69     79     78
      4     70     71     81     80
      4     71     72     82     81
      4     72     73     83     82
      4     73     74     84     83
      4     74     75     85     84
      4     75     76     86     85
      4     76     77     87     86
      4     77     78     88     87
      4     78     79     89     88
      4     80     81     91     90
      4     81     82     92     91
      4     82     83     93     92
      4     83     84     94     93
      4     84     85     95     94
      4     85     86     96     95
      4     86     87     97     96
      4     87     88     98     97
      4     88     89     99     98
      4     90     91    101    100
      4     91     92    102    101
      4     92     93    103    102
      4     93     94    104    103
      4     94     95    105    104
      4     95     96    106    105
      4     96     97    107    106
      4     97     98    108    107
      4     98     99    109    108
      4    100    101    111    110
      4    101    102    112    111
      4    102    103    113    112
      4    103    104    114    113
      4    104    105    115    114
      4    105    106    116    115
      4    106    107    117    116
      4    107    108    118    117
      4    108    109    119    118
      4    110    111    121    120
      4    111    112    122    121
      4    112    113    123    122
      4    113    114    124    123
      4    114    115    125    124
      4    115    116    126    125
      4    116    117    127    126
      4    117    118    128    127
      4    118    119    129    128
      4    120    121    131    130
      4    121    122    132    131
      4    122    123    133    132
      4    123    124    134    133
      4    124    125    135    134
      4    125    126    136    135
      4    126    127    137    136
      4    127    128    138    137
      4    128    129    139    138
      4    130    131    141    140
      4    131    132    142    141
      4    132    133    143    142
      4    133    134    144    143
      4    134    135    145    144
      4    135    136    146    145
      4    136    137    147    146
      4    137    138    148    147
      4    138    139    149    148
  
CELL_DATA 126
SCALARS Gamma double
LOOKUP_TABLE default
  0.11276037E+003
  0.50388080E+002
  0.17760991E+002
  0.25946641E+002
  0.48181962E+002
  0.41039930E+002
  0.27958294E+002
  0.40072636E+002
  0.47914078E+002
  0.11276037E+003
  0.50388080E+002
  0.17760991E+002
  0.25946641E+002
  0.48181962E+002
  0.41039930E+002
  0.27958294E+002
  0.40072636E+002
  0.47914078E+002
  0.11372478E+003
  0.53426427E+002
  0.20225088E+002
  0.28672640E+002
  0.51117529E+002
  0.43943908E+002
  0.30757073E+002
  0.43294595E+002
  0.50780150E+002
  0.11487674E+003
  0.54509432E+002
  0.21238922E+002
  0.31578756E+002
  0.54134381E+002
  0.46517198E+002
  0.32831361E+002
  0.46126820E+002
  0.53508508E+002
  0.11550391E+003
  0.55599070E+002
  0.22622397E+002
  0.34596947E+002
  0.56909105E+002
  0.48939084E+002
  0.35019932E+002
  0.49063237E+002
  0.56174020E+002
  0.11260791E+003
  0.55118972E+002
  0.23710119E+002
  0.36574781E+002
  0.57627379E+002
  0.49673087E+002
  0.36249274E+002
  0.50634756E+002
  0.57102687E+002
  0.10000560E+003
  0.49889924E+002
  0.22951288E+002
  0.35053800E+002
  0.52787068E+002
  0.45703218E+002
  0.34215870E+002
  0.47591404E+002
  0.52785673E+002
  0.80240252E+002
  0.41003710E+002
  0.20324579E+002
  0.30230284E+002
  0.43423174E+002
  0.37859980E+002
  0.29248693E+002
  0.40490246E+002
  0.44129981E+002
  0.57999852E+002
  0.30493256E+002
  0.16374694E+002
  0.23384678E+002
  0.31974723E+002
  0.28167340E+002
  0.22576558E+002
  0.31041105E+002
  0.33225043E+002
  0.35761694E+002
  0.19421458E+002
  0.11297451E+002
  0.15331624E+002
  0.19929530E+002
  0.17800053E+002
  0.14857698E+002
  0.20276385E+002
  0.21328000E+002
  0.15959946E+002
  0.89899100E+001
  0.56573961E+001
  0.72274289E+001
  0.89183685E+001
  0.81136264E+001
  0.70842443E+001
  0.95628548E+001
  0.98835952E+001
  0.32256505E+001
  0.18979344E+001
  0.12865983E+001
  0.15436262E+001
  0.18072758E+001
  0.16817938E+001
  0.15339126E+001
  0.20388992E+001
  0.20787311E+001
  0.37831218E-001
  0.23374740E-001
  0.16846978E-001
  0.18749696E-001
  0.20843277E-001
  0.19884976E-001
  0.19074689E-001
  0.25027292E-001
  0.25240302E-001
  0.00000000E+000
  0.00000000E+000
  0.00000000E+000
  0.00000000E+000
  0.00000000E+000
  0.00000000E+000
  0.00000000E+000
  0.00000000E+000
  0.00000000E+000
POINT_DATA 150
VECTORS Uconv double
  0.00000000E+000  0.00000000E+000  0.00000000E+000
  0.00000000E+000  0.00000000E+000  0.00000000E+000
  0.00000000E+000  0.00000000E+000  0.00000000E+000
  0.00000000E+000  0.00000000E+000  0.00000000E+000
  0.00000000E+000  0.00000000E+000  0.00000000E+000
  0.00000000E+000  0.00000000E+000  0.00000000E+000
  0.00000000E+000  0.00000000E+000  0.00000000E+000
  0.00000000E+000  0.00000000E+000  0.00000000E+000
  0.00000000E+000  0.00000000E+000  0.00000000E+000
  0.00000000E+000  0.00000000E+000  0.00000000E+000
  0.00000000E+000  0.00000000E+000  0.00000000E+000
  0.00000000E+000  0.00000000E+000  0.00000000E+000
  0.00000000E+000  0.00000000E+000  0.00000000E+000
  0.00000000E+000  0.00000000E+000  0.00000000E+000
  0.00000000E+000  0.00000000E+000  0.00000000E+000
  0.00000000E+000  0.00000000E+000  0.00000000E+000
  0.00000000E+000  0.00000000E+000  0.00000000E+000
  0.00000000E+000  0.00000000E+000  0.00000000E+000
  0.00000000E+000  0.00000000E+000  0.00000000E+000
  0.00000000E+000  0.00000000E+000  0.00000000E+000
  0.17138166E+002  0.73533921E-001 -0.47318705E+000
  0.17024827E+002 -0.42155431E+000 -0.16841219E+001
  0.17063170E+002 -0.30474965E+000 -0.35993938E+000
  0.17088146E+002 -0.24439833E+000 -0.11403485E+000
  0.16911918E+002 -0.74398095E+000 -0.58721888E-001
  0.16872334E+002 -0.86990352E+000  0.13192833E+000
  0.17007694E+002 -0.47223117E+000  0.29037933E+000
  0.17016848E+002 -0.41539997E+000  0.44986053E+000
  0.17026017E+002 -0.36735187E+000  0.40564108E+000
  0.17042474E+002  0.14488148E-001  0.71346298E+000
  0.17144111E+002  0.86209056E-001 -0.47289305E+000
  0.17046111E+002 -0.39687379E+000 -0.16378010E+001
  0.17064215E+002 -0.30240641E+000 -0.35625007E+000
  0.17082898E+002 -0.26542213E+000 -0.12983157E+000
  0.16878037E+002 -0.84050826E+000 -0.68374414E-001
  0.16835279E+002 -0.97437828E+000  0.14415450E+000
  0.16998642E+002 -0.50199700E+000  0.31014117E+000
  0.17015497E+002 -0.41800623E+000  0.45326285E+000
  0.17032583E+002 -0.34707473E+000  0.39694710E+000
  0.17047783E+002  0.22030244E-001  0.68639794E+000
  0.17150199E+002  0.99350543E-001 -0.47370853E+000
  0.17068566E+002 -0.35719373E+000 -0.14661880E+001
  0.17068711E+002 -0.29207182E+000 -0.34288130E+000
  0.17080307E+002 -0.27984868E+000 -0.13878506E+000
  0.16874064E+002 -0.85718854E+000 -0.73353025E-001
  0.16829435E+002 -0.99350437E+000  0.15095641E+000
  0.16994878E+002 -0.51775340E+000  0.32104850E+000
  0.17018677E+002 -0.41020211E+000  0.44478366E+000
  0.17042131E+002 -0.32264707E+000  0.39284152E+000
  0.17053052E+002  0.29513004E-001  0.66143304E+000
  0.17144639E+002  0.90219462E-001 -0.45190194E+000
  0.17091368E+002 -0.32147343E+000 -0.13321730E+001
  0.17077755E+002 -0.27179188E+000 -0.31696174E+000
  0.17081797E+002 -0.28425361E+000 -0.14165039E+000
  0.16868784E+002 -0.87529593E+000 -0.75315019E-001
  0.16824837E+002 -0.10075484E+001  0.15156578E+000
  0.16999274E+002 -0.51255485E+000  0.31657327E+000
  0.17027374E+002 -0.38958408E+000  0.42092526E+000
  0.17053768E+002 -0.29464562E+000  0.38125396E+000
  0.17058460E+002  0.37233284E-001  0.63809190E+000
  0.17148721E+002  0.10055123E+000 -0.45053277E+000
  0.17111942E+002 -0.28253334E+000 -0.11590649E+001
  0.17091496E+002 -0.24142117E+000 -0.27910482E+000
  0.17088857E+002 -0.27546148E+000 -0.13508137E+000
  0.16888100E+002 -0.82936480E+000 -0.73266409E-001
  0.16847621E+002 -0.94847374E+000  0.14275879E+000
  0.17013885E+002 -0.48212960E+000  0.29408885E+000
  0.17043094E+002 -0.35417672E+000  0.37516726E+000
  0.17067505E+002 -0.26349360E+000  0.36024311E+000
  0.17063789E+002  0.44956094E-001  0.61643954E+000
  0.17152716E+002  0.11096983E+000 -0.44952863E+000
  0.17130396E+002 -0.24059054E+000 -0.95660109E+000
  0.17110082E+002 -0.20147570E+000 -0.22949502E+000
  0.17102021E+002 -0.25270968E+000 -0.11859199E+000
  0.16933595E+002 -0.71643263E+000 -0.67295085E-001
  0.16899354E+002 -0.81537871E+000  0.12586024E+000
  0.17038606E+002 -0.42788586E+000  0.25391216E+000
  0.17064175E+002 -0.30783047E+000  0.32788160E+000
  0.17083097E+002 -0.22971594E+000  0.32913435E+000
  0.17069483E+002  0.52892912E-001  0.59617130E+000
  0.17156618E+002  0.12164843E+000 -0.44871662E+000
  0.17141180E+002 -0.20916311E+000 -0.76733652E+000
  0.17132844E+002 -0.15351049E+000 -0.17002432E+000
  0.17076904E+002 -0.33494974E+000 -0.15306150E+000
  0.16905449E+002 -0.82088420E+000 -0.11305392E+000
  0.16859524E+002 -0.95484083E+000  0.18896537E+000
  0.17010883E+002 -0.52236790E+000  0.28579594E+000
  0.17090873E+002 -0.25047739E+000  0.25835306E+000
  0.17103437E+002 -0.19701733E+000  0.29103050E+000
  0.17107013E+002  0.12098076E+000  0.57348966E+000
  0.17160287E+002  0.13215773E+000 -0.44854257E+000
  0.17154507E+002 -0.16353447E+000 -0.52559198E+000
  0.17158744E+002 -0.10017062E+000 -0.10386061E+000
  0.17107761E+002 -0.26752699E+000 -0.10588344E+000
  0.17003334E+002 -0.57539933E+000 -0.88627601E-001
  0.16967801E+002 -0.67429968E+000  0.14766012E+000
  0.17059043E+002 -0.40762524E+000  0.20254051E+000
  0.17120971E+002 -0.18641307E+000  0.18124222E+000
  0.17120984E+002 -0.16087054E+000  0.23809329E+000
  0.17106801E+002  0.11812657E+000  0.56071453E+000
  0.17190971E+002  0.21565843E+000 -0.69144937E+000
  0.17161068E+002 -0.13387884E+000 -0.32886382E+000
  0.17186169E+002 -0.44731457E-001 -0.35030585E-001
  0.17140748E+002 -0.19661471E+000 -0.59351834E-001
  0.17097606E+002 -0.34739555E+000 -0.59664562E-001
  0.17069605E+002 -0.42094171E+000  0.10740897E+000
  0.17107791E+002 -0.29453382E+000  0.12338637E+000
  0.17152865E+002 -0.11999155E+000  0.10145571E+000
  0.17138354E+002 -0.12557692E+000  0.18276368E+000
  0.17107410E+002  0.11662797E+000  0.54218251E+000
  0.17202274E+002  0.23398361E+000 -0.65727268E+000
  0.17176787E+002 -0.84690462E-001 -0.99942932E-001
  0.17213637E+002  0.91468997E-002  0.23266103E-001
  0.17173949E+002 -0.12700015E+000 -0.13330992E-001
  0.17179235E+002 -0.15907286E+000 -0.36443974E-001
  0.17156461E+002 -0.21235776E+000  0.71823306E-001
  0.17154792E+002 -0.18932248E+000  0.48941719E-001
  0.17184587E+002 -0.55680329E-001  0.24027912E-001
  0.17155655E+002 -0.90591876E-001  0.12233999E+000
  0.17127006E+002  0.15113206E+000  0.52681967E+000
  0.17198619E+002  0.23229505E+000 -0.63760399E+000
  0.17194754E+002 -0.37413755E-001  0.34052975E-001
  0.17239482E+002  0.58112939E-001  0.86159127E-001
  0.17204614E+002 -0.63624015E-001  0.28420004E-001
  0.17243794E+002 -0.18148293E-001 -0.15109806E-001
  0.17226224E+002 -0.56982034E-001  0.41405978E-001
  0.17197653E+002 -0.96986876E-001 -0.18995803E-001
  0.17214466E+002  0.20776084E-002 -0.42071926E-001
  0.17173105E+002 -0.57642146E-001  0.60363472E-001
  0.17123949E+002  0.14295846E+000  0.51101802E+000
  0.17197079E+002  0.23407964E+000 -0.61835992E+000
  0.17210768E+002  0.34583858E-002  0.16148427E+000
  0.17262597E+002  0.10027027E+000  0.14015784E+000
  0.17231467E+002 -0.10148500E-001  0.65480137E-001
  0.17289483E+002  0.76296294E-001  0.65388066E-002
  0.17276658E+002  0.48547747E-001  0.14707987E-001
  0.17231641E+002 -0.17456338E-001 -0.76104762E-001
  0.17240921E+002  0.51943302E-001 -0.10353113E+000
  0.17188534E+002 -0.27672939E-001  0.20998889E-003
  0.17122915E+002  0.13870425E+000  0.49677218E+000
  0.17252713E+002  0.38259817E+000 -0.10170850E+001
  0.17230755E+002  0.43210454E-001  0.28544526E+000
  0.17281625E+002  0.13384201E+000  0.17523821E+000
  0.17252307E+002  0.30607470E-001  0.89944320E-001
  0.17317411E+002  0.13143421E+000  0.18860938E-001
  0.17305675E+002  0.10673300E+000 -0.14720564E-002
  0.17258711E+002  0.37725697E-001 -0.11169689E+000
  0.17262494E+002  0.91579275E-001 -0.15089644E+000
  0.17203742E+002 -0.23029827E-003 -0.56691894E-001
  0.17123275E+002  0.13718931E+000  0.48426144E+000
