# vtk DataFile Version 2.0
BldPointCP.BldC
ASCII
 
DATASET POLYDATA
POINTS 9 double
  0.86748890E+001 -0.76871077E+001  0.10624881E+003
  0.20887259E+002 -0.19021754E+002  0.94472817E+002
  0.30735445E+002 -0.28102804E+002  0.82377454E+002
  0.37335346E+002 -0.34120147E+002  0.70126474E+002
  0.39393176E+002 -0.35927564E+002  0.58080441E+002
  0.37268115E+002 -0.33927919E+002  0.46059259E+002
  0.30655369E+002 -0.27913999E+002  0.33783334E+002
  0.20791688E+002 -0.18960181E+002  0.21591551E+002
  0.84655208E+001 -0.77266021E+001  0.98429228E+001
  
POINT_DATA 9
SCALARS Gamma_LL double
LOOKUP_TABLE default
  0.60030377E+002
  0.10826145E+003
  0.83625840E+002
  0.94035852E+002
  0.10473514E+003
  0.10573521E+003
  0.99282871E+002
  0.11275925E+003
  0.32888030E+002
VECTORS Vind_CP double
 -0.16107699E+000 -0.26492058E+000 -0.43751890E+000
 -0.19757122E+000  0.16051673E+000 -0.32609970E+000
 -0.30129646E+000  0.25599564E+000 -0.24338658E+000
 -0.65527686E+000  0.51226032E+000 -0.21046588E+000
 -0.93073302E+000  0.68622483E+000  0.22495936E-001
 -0.75948188E+000  0.59664374E+000  0.29396603E+000
 -0.40669464E+000  0.34143785E+000  0.34963602E+000
 -0.30068324E+000  0.23143211E+000  0.36537365E+000
 -0.10194532E+000 -0.39116373E-001  0.62382902E-001
VECTORS Vtot_CP double
  0.57631558E+000 -0.16224787E+002  0.57772349E+000
 -0.19351617E+002 -0.37124008E+002  0.10055132E+001
 -0.36063779E+002 -0.53626159E+002 -0.29878392E-002
 -0.46789448E+002 -0.65516348E+002 -0.18237130E+000
 -0.49495216E+002 -0.70414452E+002  0.44613392E+000
 -0.45739735E+002 -0.67262374E+002  0.92171891E+000
 -0.34702975E+002 -0.55282615E+002  0.10714357E+001
 -0.17897232E+002 -0.37418223E+002  0.67356052E+000
  0.30720819E+001 -0.15398936E+002  0.38799291E-001
VECTORS Vstr_CP double
  0.16462607E+002  0.15959867E+002 -0.10152424E+001
  0.36354046E+002  0.37284525E+002 -0.13316129E+001
  0.52962483E+002  0.53882155E+002 -0.24039874E+000
  0.63334171E+002  0.66028608E+002 -0.28094575E-001
  0.65764483E+002  0.71100677E+002 -0.42363799E+000
  0.62180253E+002  0.67859018E+002 -0.62775288E+000
  0.51496280E+002  0.55624052E+002 -0.72179965E+000
  0.34796548E+002  0.37649655E+002 -0.30818687E+000
  0.14025973E+002  0.15359819E+002  0.23583611E-001
VECTORS Vwnd_CP double
  0.17200000E+002  0.00000000E+000  0.00000000E+000
  0.17200000E+002  0.00000000E+000  0.00000000E+000
  0.17200000E+002  0.00000000E+000  0.00000000E+000
  0.17200000E+002  0.00000000E+000  0.00000000E+000
  0.17200000E+002  0.00000000E+000  0.00000000E+000
  0.17200000E+002  0.00000000E+000  0.00000000E+000
  0.17200000E+002  0.00000000E+000  0.00000000E+000
  0.17200000E+002  0.00000000E+000  0.00000000E+000
  0.17200000E+002  0.00000000E+000  0.00000000E+000
VECTORS Tangent double
 -0.44881607E+000 -0.89362390E+000 -0.67625870E-003
 -0.66949938E+000 -0.74278960E+000  0.58472481E-002
 -0.68430770E+000 -0.72918384E+000  0.37275602E-002
 -0.68295970E+000 -0.73045561E+000 -0.80310091E-003
 -0.67595414E+000 -0.73694366E+000 -0.19312305E-003
 -0.67770199E+000 -0.73533627E+000  0.76241119E-003
 -0.67854588E+000 -0.73455761E+000  0.78469067E-003
 -0.67399368E+000 -0.73873697E+000  0.44666504E-003
 -0.67348514E+000 -0.73917820E+000 -0.57757738E-002
VECTORS Normal double
  0.47747938E+000 -0.24045007E+000  0.84510189E+000
  0.47562926E+000 -0.42262644E+000  0.77146853E+000
  0.51459808E+000 -0.47929378E+000  0.71096152E+000
  0.65975517E+000 -0.61732751E+000  0.42852055E+000
  0.73690322E+000 -0.67591425E+000 -0.10656532E-001
  0.66150324E+000 -0.61010801E+000 -0.43609824E+000
  0.52054338E+000 -0.48160390E+000 -0.70504771E+000
  0.47265362E+000 -0.43169453E+000 -0.76826974E+000
  0.38225889E+000 -0.34157741E+000 -0.85860528E+000
VECTORS Orth double
  0.75536586E+000 -0.37897241E+000 -0.53460484E+000
  0.57056760E+000 -0.51927882E+000 -0.63624061E+000
  0.51663506E+000 -0.48843464E+000 -0.70322103E+000
  0.31351102E+000 -0.29213242E+000 -0.90353168E+000
 -0.77227293E-002  0.73456401E-002 -0.99994320E+000
 -0.32114400E+000  0.29504030E+000 -0.89989874E+000
 -0.51827607E+000  0.47799875E+000 -0.70915944E+000
 -0.56774208E+000  0.51759783E+000 -0.64012609E+000
 -0.63268942E+000  0.58046574E+000 -0.51260474E+000
