# vtk DataFile Version 2.0
BldPointCP.BldA
ASCII
 
DATASET POLYDATA
POINTS 9 double
 -0.10707656E+002 -0.34413694E+001  0.10654495E+003
 -0.26685107E+002 -0.85742921E+001  0.94975063E+002
 -0.39241164E+002 -0.12695823E+002  0.82703362E+002
 -0.47617207E+002 -0.15500514E+002  0.70347738E+002
 -0.50332938E+002 -0.16427802E+002  0.58343625E+002
 -0.47619410E+002 -0.15528007E+002  0.46345432E+002
 -0.39229709E+002 -0.12703183E+002  0.33987924E+002
 -0.26740124E+002 -0.85738280E+001  0.21631236E+002
 -0.10919163E+002 -0.34860546E+001  0.98272468E+001
  
POINT_DATA 9
SCALARS Gamma_LL double
LOOKUP_TABLE default
 -0.40424488E+001
 -0.15723221E+003
 -0.14238696E+003
 -0.10923465E+003
 -0.90138419E+002
 -0.81779626E+002
 -0.97541464E+002
 -0.13740035E+003
 -0.58522587E+002
VECTORS Vind_CP double
  0.10777801E+000 -0.28271409E+000  0.10131367E+000
 -0.63028927E+000  0.17419877E-001  0.60560446E+000
 -0.92752489E+000 -0.44423305E-001  0.64985784E+000
 -0.10784581E+001 -0.11800224E+000  0.36274483E+000
 -0.96438373E+000 -0.18651739E+000  0.32887238E-001
 -0.86368029E+000 -0.10284022E+000 -0.21468330E+000
 -0.70726353E+000 -0.43120044E-001 -0.44664903E+000
 -0.61383541E+000 -0.31073696E-001 -0.56992043E+000
 -0.20896518E+000 -0.15565255E-002 -0.77280358E-001
VECTORS Vtot_CP double
  0.85747695E+001  0.19210204E+002 -0.15337446E+001
 -0.18225364E+000  0.49439002E+002 -0.33615423E+001
 -0.84388055E+001  0.73263685E+002 -0.37390956E+001
 -0.15657320E+002  0.89303433E+002 -0.30729635E+001
 -0.18225962E+002  0.94612086E+002 -0.29353915E+001
 -0.15851370E+002  0.89268862E+002 -0.28776029E+001
 -0.88490917E+001  0.72879692E+002 -0.21141609E+001
  0.34976604E+000  0.49140092E+002 -0.10619695E+001
  0.10622626E+002  0.19934940E+002 -0.10092172E+000
VECTORS Vstr_CP double
  0.87330086E+001 -0.19492919E+002  0.16350583E+001
  0.16751964E+002 -0.49421582E+002  0.39671468E+001
  0.24711281E+002 -0.73308109E+002  0.43889535E+001
  0.31778862E+002 -0.89421435E+002  0.34357084E+001
  0.34461578E+002 -0.94798603E+002  0.29682788E+001
  0.32187690E+002 -0.89371702E+002  0.26629196E+001
  0.25341828E+002 -0.72922812E+002  0.16675118E+001
  0.16236399E+002 -0.49171165E+002  0.49204909E+000
  0.63684088E+001 -0.19936497E+002  0.23641357E-001
VECTORS Vwnd_CP double
  0.17200000E+002  0.00000000E+000  0.00000000E+000
  0.17200000E+002  0.00000000E+000  0.00000000E+000
  0.17200000E+002  0.00000000E+000  0.00000000E+000
  0.17200000E+002  0.00000000E+000  0.00000000E+000
  0.17200000E+002  0.00000000E+000  0.00000000E+000
  0.17200000E+002  0.00000000E+000  0.00000000E+000
  0.17200000E+002  0.00000000E+000  0.00000000E+000
  0.17200000E+002  0.00000000E+000  0.00000000E+000
  0.17200000E+002  0.00000000E+000  0.00000000E+000
VECTORS Tangent double
 -0.89367752E+000  0.44852575E+000 -0.12850726E-001
 -0.31007438E+000  0.95071190E+000 -0.87341076E-003
 -0.30597964E+000  0.95203366E+000 -0.28920026E-002
 -0.29083300E+000  0.95676089E+000 -0.49763731E-002
 -0.28462651E+000  0.95863848E+000  0.77907566E-004
 -0.28609350E+000  0.95819820E+000  0.25901730E-002
 -0.29106791E+000  0.95670079E+000  0.17500539E-002
 -0.29622916E+000  0.95511601E+000  0.13043744E-002
 -0.29942409E+000  0.95411971E+000  0.88770697E-003
VECTORS Normal double
 -0.29070246E+000 -0.55692690E+000  0.77802604E+000
 -0.60707805E+000 -0.19729114E+000  0.76976130E+000
 -0.68715223E+000 -0.21874332E+000  0.69280096E+000
 -0.86112156E+000 -0.25948692E+000  0.43719126E+000
 -0.95863732E+000 -0.28462629E+000  0.15388566E-002
 -0.86144210E+000 -0.25601898E+000 -0.43860209E+000
 -0.69028545E+000 -0.20874610E+000 -0.69277057E+000
 -0.61837531E+000 -0.19074789E+000 -0.76238259E+000
 -0.48847686E+000 -0.15249561E+000 -0.85914810E+000
VECTORS Orth double
 -0.34180780E+000 -0.69904012E+000 -0.62810059E+000
 -0.73164891E+000 -0.23921349E+000 -0.63833125E+000
 -0.65893723E+000 -0.21397024E+000 -0.72112305E+000
 -0.41699619E+000 -0.13143491E+000 -0.89935479E+000
 -0.14973817E-002 -0.36331429E-003 -0.99999881E+000
  0.41960460E+000  0.12771249E+000 -0.89867764E+000
  0.66240884E+000  0.20285132E+000 -0.72115593E+000
  0.72791501E+000  0.22664655E+000 -0.64712525E+000
  0.81959476E+000  0.25768326E+000 -0.51172626E+000
