# vtk DataFile Version 2.0

ASCII
 
DATASET POLYDATA
POINTS 2 double
  0.00000000E+000  0.00000000E+000  0.00000000E+000
  0.00000000E+000  0.00000000E+000  0.00000000E+000
  
POLYGONS 0 0
  
CELL_DATA 0
SCALARS Gamma double
LOOKUP_TABLE default

POINT_DATA 2
VECTORS Uconv double
 -0.23456071E+000 -0.55518367E+000 -0.18987480E+000
 -0.23456071E+000 -0.55518367E+000 -0.18987480E+000
