# vtk DataFile Version 2.0

ASCII
 
DATASET POLYDATA
POINTS 200 double
  0.34780875E+000  0.84113911E-001  0.11318060E+003
  0.15572180E+002 -0.13562269E+002  0.10073234E+003
  0.26475909E+002 -0.23328388E+002  0.88676407E+002
  0.35667750E+002 -0.31454546E+002  0.76566375E+002
  0.40073424E+002 -0.35292281E+002  0.64212061E+002
  0.40018739E+002 -0.35131485E+002  0.51940164E+002
  0.35560205E+002 -0.31186449E+002  0.39641865E+002
  0.26395469E+002 -0.23191373E+002  0.27411628E+002
  0.15428318E+002 -0.13576827E+002  0.15270111E+002
  0.15682071E-003  0.29161636E-004  0.30001956E+001
 -0.52738548E+000 -0.43298425E+001  0.11314861E+003
  0.12721145E+002 -0.16929612E+002  0.10075604E+003
  0.24406610E+002 -0.25632311E+002  0.88699681E+002
  0.34008606E+002 -0.33264676E+002  0.76566292E+002
  0.38573666E+002 -0.36977285E+002  0.64208595E+002
  0.38497805E+002 -0.36856327E+002  0.51942978E+002
  0.33823629E+002 -0.33121861E+002  0.39643759E+002
  0.24121929E+002 -0.25753768E+002  0.27415319E+002
  0.12466726E+002 -0.16964891E+002  0.15270368E+002
 -0.29782960E+001 -0.33727528E+001  0.29439760E+001
 -0.43227787E+000 -0.43239893E+001  0.11314264E+003
  0.12582108E+002 -0.17154204E+002  0.10073398E+003
  0.24105360E+002 -0.26060681E+002  0.88688812E+002
  0.33566701E+002 -0.33862436E+002  0.76558695E+002
  0.38060416E+002 -0.37653348E+002  0.64205363E+002
  0.37985456E+002 -0.37530047E+002  0.51947117E+002
  0.33382211E+002 -0.33714664E+002  0.39653291E+002
  0.23817522E+002 -0.26175913E+002  0.27427212E+002
  0.12326947E+002 -0.17183247E+002  0.15271822E+002
 -0.28706814E+001 -0.33169143E+001  0.29409787E+001
 -0.37173644E+000 -0.43188049E+001  0.11314419E+003
  0.12414118E+002 -0.17371889E+002  0.10072865E+003
  0.23777462E+002 -0.26473325E+002  0.88686985E+002
  0.33091296E+002 -0.34432490E+002  0.76548221E+002
  0.37519450E+002 -0.38308166E+002  0.64206243E+002
  0.37451453E+002 -0.38199616E+002  0.51955912E+002
  0.32916617E+002 -0.34304105E+002  0.39669599E+002
  0.23496432E+002 -0.26592084E+002  0.27444792E+002
  0.12181329E+002 -0.17397848E+002  0.15271281E+002
 -0.27614290E+001 -0.32607869E+001  0.29410323E+001
 -0.31055820E+000 -0.43114692E+001  0.11315064E+003
  0.12243701E+002 -0.17583592E+002  0.10072498E+003
  0.23444293E+002 -0.26876796E+002  0.88684475E+002
  0.32606779E+002 -0.34989900E+002  0.76535895E+002
  0.36966884E+002 -0.38949365E+002  0.64205856E+002
  0.36904423E+002 -0.38855599E+002  0.51964380E+002
  0.32440243E+002 -0.34881593E+002  0.39686258E+002
  0.23168579E+002 -0.26999549E+002  0.27461562E+002
  0.12032945E+002 -0.17607302E+002  0.15275439E+002
 -0.26510220E+001 -0.32038967E+001  0.29371728E+001
 -0.24751877E+000 -0.43042121E+001  0.11314989E+003
  0.12070889E+002 -0.17789396E+002  0.10072143E+003
  0.23106125E+002 -0.27271188E+002  0.88681498E+002
  0.32113620E+002 -0.35534940E+002  0.76522597E+002
  0.36402838E+002 -0.39576800E+002  0.64204342E+002
  0.36344546E+002 -0.39497599E+002  0.51972840E+002
  0.31953365E+002 -0.35446733E+002  0.39702687E+002
  0.22834478E+002 -0.27398425E+002  0.27477070E+002
  0.11880942E+002 -0.17811086E+002  0.15277584E+002
 -0.25395471E+001 -0.31462435E+001  0.29331107E+001
 -0.18439308E+000 -0.42917881E+001  0.11315483E+003
  0.11895167E+002 -0.17988399E+002  0.10071477E+003
  0.22763396E+002 -0.27656801E+002  0.88678556E+002
  0.31612926E+002 -0.36068633E+002  0.76508996E+002
  0.35828657E+002 -0.40191609E+002  0.64202074E+002
  0.35773070E+002 -0.40126235E+002  0.51980836E+002
  0.31457189E+002 -0.36000070E+002  0.39718370E+002
  0.22494500E+002 -0.27788718E+002  0.27491038E+002
  0.11725430E+002 -0.18009058E+002  0.15278976E+002
 -0.24273594E+001 -0.30871234E+001  0.29287389E+001
 -0.12283872E+000 -0.42676582E+001  0.11316064E+003
  0.11717371E+002 -0.18181735E+002  0.10071241E+003
  0.22416512E+002 -0.28033937E+002  0.88676739E+002
  0.31105028E+002 -0.36591278E+002  0.76495498E+002
  0.35245196E+002 -0.40794491E+002  0.64199603E+002
  0.35191524E+002 -0.40742457E+002  0.51987946E+002
  0.30952806E+002 -0.36542076E+002  0.39732731E+002
  0.22149322E+002 -0.28170780E+002  0.27502206E+002
  0.11567450E+002 -0.18200825E+002  0.15282813E+002
 -0.23146817E+001 -0.30260912E+001  0.29245048E+001
 -0.56980301E-001 -0.42505855E+001  0.11316263E+003
  0.11539313E+002 -0.18368269E+002  0.10071730E+003
  0.22065678E+002 -0.28402753E+002  0.88675136E+002
  0.30591009E+002 -0.37103974E+002  0.76483177E+002
  0.34654288E+002 -0.41387218E+002  0.64197432E+002
  0.34601985E+002 -0.41347815E+002  0.51993684E+002
  0.30441560E+002 -0.37073522E+002  0.39744536E+002
  0.21799160E+002 -0.28544517E+002  0.27511460E+002
  0.11406761E+002 -0.18387065E+002  0.15282692E+002
 -0.22001579E+001 -0.29655090E+001  0.29164978E+001
  0.10371789E-001 -0.42298385E+001  0.11316135E+003
  0.11363020E+002 -0.18552105E+002  0.10071959E+003
  0.21711185E+002 -0.28763517E+002  0.88674502E+002
  0.30071747E+002 -0.37607719E+002  0.76472873E+002
  0.34058206E+002 -0.41972070E+002  0.64196204E+002
  0.34006954E+002 -0.41944394E+002  0.51997433E+002
  0.29924744E+002 -0.37595250E+002  0.39752867E+002
  0.21444506E+002 -0.28910169E+002  0.27517863E+002
  0.11241482E+002 -0.18568405E+002  0.15289363E+002
 -0.20850416E+001 -0.29030956E+001  0.29080777E+001
  0.79747505E-001 -0.42078747E+001  0.11316390E+003
  0.11178579E+002 -0.18722970E+002  0.10074728E+003
  0.21353236E+002 -0.29116451E+002  0.88675406E+002
  0.29548082E+002 -0.38103502E+002  0.76465508E+002
  0.33457320E+002 -0.42549621E+002  0.64196480E+002
  0.33407059E+002 -0.42532688E+002  0.51998574E+002
  0.29403648E+002 -0.38108081E+002  0.39757055E+002
  0.21083129E+002 -0.29265450E+002  0.27525311E+002
  0.11074299E+002 -0.18742626E+002  0.15291544E+002
 -0.19686349E+001 -0.28400698E+001  0.29033223E+001
  0.15311722E+000 -0.41884860E+001  0.11315436E+003
  0.11002998E+002 -0.18893441E+002  0.10076009E+003
  0.20989426E+002 -0.29459387E+002  0.88673824E+002
  0.29020584E+002 -0.38592049E+002  0.76461653E+002
  0.32855574E+002 -0.43123626E+002  0.64198704E+002
  0.32806800E+002 -0.43116553E+002  0.51996655E+002
  0.28879138E+002 -0.38612602E+002  0.39756323E+002
  0.20718210E+002 -0.29613093E+002  0.27528925E+002
  0.10905275E+002 -0.18910873E+002  0.15292945E+002
 -0.18505790E+001 -0.27763819E+001  0.28993139E+001
  0.22755018E+000 -0.41657826E+001  0.11315047E+003
  0.10818148E+002 -0.19054541E+002  0.10078883E+003
  0.20624916E+002 -0.29797166E+002  0.88678161E+002
  0.28489187E+002 -0.39073362E+002  0.76461447E+002
  0.32255909E+002 -0.43696919E+002  0.64202985E+002
  0.32209263E+002 -0.43698654E+002  0.51991715E+002
  0.28351141E+002 -0.39108466E+002  0.39751061E+002
  0.20352179E+002 -0.29955277E+002  0.27524873E+002
  0.10733028E+002 -0.19074765E+002  0.15288485E+002
 -0.17299462E+001 -0.27134872E+001  0.29002154E+001
  0.30570399E+000 -0.41416439E+001  0.11314960E+003
  0.10640633E+002 -0.19207744E+002  0.10084048E+003
  0.20252193E+002 -0.30122723E+002  0.88676566E+002
  0.27953345E+002 -0.39546850E+002  0.76464527E+002
  0.31653624E+002 -0.44264671E+002  0.64208856E+002
  0.31609530E+002 -0.44273978E+002  0.51984253E+002
  0.27819139E+002 -0.39594769E+002  0.39741742E+002
  0.19977528E+002 -0.30284422E+002  0.27525689E+002
  0.10559075E+002 -0.19232647E+002  0.15284152E+002
 -0.16073091E+001 -0.26499679E+001  0.29018110E+001
  0.38493248E+000 -0.41080583E+001  0.11314887E+003
  0.10459509E+002 -0.19359587E+002  0.10085841E+003
  0.19877940E+002 -0.30442521E+002  0.88680187E+002
  0.27411392E+002 -0.40010519E+002  0.76469592E+002
  0.31044849E+002 -0.44822273E+002  0.64215127E+002
  0.31003447E+002 -0.44837753E+002  0.51975803E+002
  0.27281075E+002 -0.40069165E+002  0.39730185E+002
  0.19601167E+002 -0.30607048E+002  0.27519797E+002
  0.10379323E+002 -0.19381958E+002  0.15285372E+002
 -0.14829114E+001 -0.25853485E+001  0.29042572E+001
  0.46835412E+000 -0.40738020E+001  0.11314735E+003
  0.10277475E+002 -0.19501400E+002  0.10089233E+003
  0.19499234E+002 -0.30753767E+002  0.88684996E+002
  0.26862449E+002 -0.40463078E+002  0.76476055E+002
  0.30426505E+002 -0.45365711E+002  0.64221333E+002
  0.30387649E+002 -0.45385860E+002  0.51967109E+002
  0.26735713E+002 -0.40530161E+002  0.39717443E+002
  0.19220186E+002 -0.30920018E+002  0.27512154E+002
  0.10202773E+002 -0.19527479E+002  0.15270140E+002
 -0.13554424E+001 -0.25205878E+001  0.29087105E+001
  0.55480739E+000 -0.40350550E+001  0.11314243E+003
  0.10095578E+002 -0.19637763E+002  0.10093007E+003
  0.19113338E+002 -0.31053564E+002  0.88686018E+002
  0.26305459E+002 -0.40902788E+002  0.76482774E+002
  0.29792422E+002 -0.45886950E+002  0.64226623E+002
  0.29755490E+002 -0.45910237E+002  0.51959323E+002
  0.26181608E+002 -0.40975892E+002  0.39705215E+002
  0.18831908E+002 -0.31220103E+002  0.27507913E+002
  0.10021147E+002 -0.19665907E+002  0.15260657E+002
 -0.12260581E+001 -0.24563302E+001  0.29232479E+001
  0.64656859E+000 -0.39959429E+001  0.11314840E+003
  0.99090117E+001 -0.19766185E+002  0.10096699E+003
  0.18723862E+002 -0.31345635E+002  0.88689704E+002
  0.25739723E+002 -0.41327865E+002  0.76489076E+002
  0.29143552E+002 -0.46385305E+002  0.64230300E+002
  0.29107744E+002 -0.46410265E+002  0.51953267E+002
  0.25617733E+002 -0.41404431E+002  0.39694139E+002
  0.18440243E+002 -0.31511260E+002  0.27500254E+002
  0.98360901E+001 -0.19797159E+002  0.15249970E+002
 -0.10964996E+001 -0.23891565E+001  0.29382504E+001
  0.74320684E+000 -0.39564418E+001  0.11315309E+003
  0.97176650E+001 -0.19884307E+002  0.10097158E+003
  0.18328114E+002 -0.31626963E+002  0.88691044E+002
  0.25166366E+002 -0.41738919E+002  0.76494987E+002
  0.28481391E+002 -0.46861577E+002  0.64232848E+002
  0.28445980E+002 -0.46887075E+002  0.51949130E+002
  0.25044896E+002 -0.41816553E+002  0.39685126E+002
  0.18043948E+002 -0.31792178E+002  0.27492777E+002
  0.96465486E+001 -0.19918928E+002  0.15246906E+002
 -0.96580288E+000 -0.23205409E+001  0.29427114E+001
  0.84346579E+000 -0.39161801E+001  0.11315678E+003
  0.95288317E+001 -0.20000349E+002  0.10098775E+003
  0.17930933E+002 -0.31903284E+002  0.88697831E+002
  0.24586771E+002 -0.42137759E+002  0.76500088E+002
  0.27811026E+002 -0.47322091E+002  0.64234582E+002
  0.27775708E+002 -0.47347663E+002  0.51946623E+002
  0.24465070E+002 -0.42215047E+002  0.39678083E+002
  0.17644278E+002 -0.32064610E+002  0.27484716E+002
  0.94529538E+001 -0.20031036E+002  0.15251594E+002
 -0.83514325E+000 -0.22500892E+001  0.29449267E+001
  
POLYGONS 171 855
      4      0      1     11     10
      4      1      2     12     11
      4      2      3     13     12
      4      3      4     14     13
      4      4      5     15     14
      4      5      6     16     15
      4      6      7     17     16
      4      7      8     18     17
      4      8      9     19     18
      4     10     11     21     20
      4     11     12     22     21
      4     12     13     23     22
      4     13     14     24     23
      4     14     15     25     24
      4     15     16     26     25
      4     16     17     27     26
      4     17     18     28     27
      4     18     19     29     28
      4     20     21     31     30
      4     21     22     32     31
      4     22     23     33     32
      4     23     24     34     33
      4     24     25     35     34
      4     25     26     36     35
      4     26     27     37     36
      4     27     28     38     37
      4     28     29     39     38
      4     30     31     41     40
      4     31     32     42     41
      4     32     33     43     42
      4     33     34     44     43
      4     34     35     45     44
      4     35     36     46     45
      4     36     37     47     46
      4     37     38     48     47
      4     38     39     49     48
      4     40     41     51     50
      4     41     42     52     51
      4     42     43     53     52
      4     43     44     54     53
      4     44     45     55     54
      4     45     46     56     55
      4     46     47     57     56
      4     47     48     58     57
      4     48     49     59     58
      4     50     51     61     60
      4     51     52     62     61
      4     52     53     63     62
      4     53     54     64     63
      4     54     55     65     64
      4     55     56     66     65
      4     56     57     67     66
      4     57     58     68     67
      4     58     59     69     68
      4     60     61     71     70
      4     61     62     72     71
      4     62     63     73     72
      4     63     64     74     73
      4     64     65     75     74
      4     65     66     76     75
      4     66     67     77     76
      4     67     68     78     77
      4     68     69     79     78
      4     70     71     81     80
      4     71     72     82     81
      4     72     73     83     82
      4     73     74     84     83
      4     74     75     85     84
      4     75     76     86     85
      4     76     77     87     86
      4     77     78     88     87
      4     78     79     89     88
      4     80     81     91     90
      4     81     82     92     91
      4     82     83     93     92
      4     83     84     94     93
      4     84     85     95     94
      4     85     86     96     95
      4     86     87     97     96
      4     87     88     98     97
      4     88     89     99     98
      4     90     91    101    100
      4     91     92    102    101
      4     92     93    103    102
      4     93     94    104    103
      4     94     95    105    104
      4     95     96    106    105
      4     96     97    107    106
      4     97     98    108    107
      4     98     99    109    108
      4    100    101    111    110
      4    101    102    112    111
      4    102    103    113    112
      4    103    104    114    113
      4    104    105    115    114
      4    105    106    116    115
      4    106    107    117    116
      4    107    108    118    117
      4    108    109    119    118
      4    110    111    121    120
      4    111    112    122    121
      4    112    113    123    122
      4    113    114    124    123
      4    114    115    125    124
      4    115    116    126    125
      4    116    117    127    126
      4    117    118    128    127
      4    118    119    129    128
      4    120    121    131    130
      4    121    122    132    131
      4    122    123    133    132
      4    123    124    134    133
      4    124    125    135    134
      4    125    126    136    135
      4    126    127    137    136
      4    127    128    138    137
      4    128    129    139    138
      4    130    131    141    140
      4    131    132    142    141
      4    132    133    143    142
      4    133    134    144    143
      4    134    135    145    144
      4    135    136    146    145
      4    136    137    147    146
      4    137    138    148    147
      4    138    139    149    148
      4    140    141    151    150
      4    141    142    152    151
      4    142    143    153    152
      4    143    144    154    153
      4    144    145    155    154
      4    145    146    156    155
      4    146    147    157    156
      4    147    148    158    157
      4    148    149    159    158
      4    150    151    161    160
      4    151    152    162    161
      4    152    153    163    162
      4    153    154    164    163
      4    154    155    165    164
      4    155    156    166    165
      4    156    157    167    166
      4    157    158    168    167
      4    158    159    169    168
      4    160    161    171    170
      4    161    162    172    171
      4    162    163    173    172
      4    163    164    174    173
      4    164    165    175    174
      4    165    166    176    175
      4    166    167    177    176
      4    167    168    178    177
      4    168    169    179    178
      4    170    171    181    180
      4    171    172    182    181
      4    172    173    183    182
      4    173    174    184    183
      4    174    175    185    184
      4    175    176    186    185
      4    176    177    187    186
      4    177    178    188    187
      4    178    179    189    188
      4    180    181    191    190
      4    181    182    192    191
      4    182    183    193    192
      4    183    184    194    193
      4    184    185    195    194
      4    185    186    196    195
      4    186    187    197    196
      4    187    188    198    197
      4    188    189    199    198
  
CELL_DATA 171
SCALARS Gamma double
LOOKUP_TABLE default
  0.61395163E+002
  0.10997389E+003
  0.86227306E+002
  0.95900615E+002
  0.10540969E+003
  0.10683968E+003
  0.10103747E+003
  0.11447776E+003
  0.33349510E+002
  0.61395163E+002
  0.10997389E+003
  0.86227306E+002
  0.95900615E+002
  0.10540969E+003
  0.10683968E+003
  0.10103747E+003
  0.11447776E+003
  0.33349510E+002
  0.60168888E+002
  0.10854302E+003
  0.84897822E+002
  0.94386827E+002
  0.10400519E+003
  0.10560066E+003
  0.99898026E+002
  0.11298045E+003
  0.32854911E+002
  0.58804484E+002
  0.10679948E+003
  0.82254837E+002
  0.92570860E+002
  0.10345399E+003
  0.10455118E+003
  0.97897462E+002
  0.11123491E+003
  0.32379709E+002
  0.57414600E+002
  0.10501053E+003
  0.79670528E+002
  0.90825219E+002
  0.10293404E+003
  0.10344840E+003
  0.95868519E+002
  0.10951464E+003
  0.31832455E+002
  0.55995925E+002
  0.10318339E+003
  0.77152219E+002
  0.89152246E+002
  0.10240634E+003
  0.10226954E+003
  0.93821348E+002
  0.10775768E+003
  0.31223643E+002
  0.54575238E+002
  0.10136402E+003
  0.74760834E+002
  0.87522418E+002
  0.10176708E+003
  0.10100265E+003
  0.91829215E+002
  0.10604890E+003
  0.30616215E+002
  0.53124638E+002
  0.99545566E+002
  0.72503410E+002
  0.85940782E+002
  0.10101857E+003
  0.99434899E+002
  0.89869162E+002
  0.10439297E+003
  0.30010144E+002
  0.51647466E+002
  0.97738212E+002
  0.70404471E+002
  0.84394105E+002
  0.10013231E+003
  0.97654972E+002
  0.87943123E+002
  0.10280359E+003
  0.29406983E+002
  0.50133611E+002
  0.95802285E+002
  0.68396894E+002
  0.82775051E+002
  0.98966935E+002
  0.95623256E+002
  0.85937736E+002
  0.10113575E+003
  0.28760945E+002
  0.47126770E+002
  0.91081558E+002
  0.64599049E+002
  0.78726788E+002
  0.94621029E+002
  0.90646486E+002
  0.81452395E+002
  0.96570826E+002
  0.27272932E+002
  0.40307935E+002
  0.78883779E+002
  0.55757413E+002
  0.68182051E+002
  0.82010533E+002
  0.78109832E+002
  0.70331007E+002
  0.84043411E+002
  0.23558086E+002
  0.31180205E+002
  0.61861691E+002
  0.43729599E+002
  0.53402917E+002
  0.64079181E+002
  0.60762635E+002
  0.54966018E+002
  0.66251422E+002
  0.18425397E+002
  0.21751674E+002
  0.43748467E+002
  0.31092012E+002
  0.37702419E+002
  0.44954690E+002
  0.42522550E+002
  0.38757463E+002
  0.47116865E+002
  0.12995209E+002
  0.12940546E+002
  0.26383846E+002
  0.18957153E+002
  0.22682258E+002
  0.26751777E+002
  0.25299876E+002
  0.23305827E+002
  0.28582989E+002
  0.78166061E+001
  0.55517334E+001
  0.11524444E+002
  0.84253451E+001
  0.98669053E+001
  0.11443381E+002
  0.10857547E+002
  0.10153410E+002
  0.12534465E+002
  0.33987728E+001
  0.10796506E+001
  0.22864924E+001
  0.17123151E+001
  0.19508177E+001
  0.22107269E+001
  0.21117534E+001
  0.20087758E+001
  0.24850141E+001
  0.67029763E+000
  0.12168383E-001
  0.26361473E-001
  0.20268502E-001
  0.22122473E-001
  0.24323726E-001
  0.23479501E-001
  0.22930704E-001
  0.28397287E-001
  0.76470951E-002
  0.00000000E+000
  0.00000000E+000
  0.00000000E+000
  0.00000000E+000
  0.00000000E+000
  0.00000000E+000
  0.00000000E+000
  0.00000000E+000
  0.00000000E+000
POINT_DATA 200
VECTORS Uconv double
  0.00000000E+000  0.00000000E+000  0.00000000E+000
  0.00000000E+000  0.00000000E+000  0.00000000E+000
  0.00000000E+000  0.00000000E+000  0.00000000E+000
  0.00000000E+000  0.00000000E+000  0.00000000E+000
  0.00000000E+000  0.00000000E+000  0.00000000E+000
  0.00000000E+000  0.00000000E+000  0.00000000E+000
  0.00000000E+000  0.00000000E+000  0.00000000E+000
  0.00000000E+000  0.00000000E+000  0.00000000E+000
  0.00000000E+000  0.00000000E+000  0.00000000E+000
  0.00000000E+000  0.00000000E+000  0.00000000E+000
  0.00000000E+000  0.00000000E+000  0.00000000E+000
  0.00000000E+000  0.00000000E+000  0.00000000E+000
  0.00000000E+000  0.00000000E+000  0.00000000E+000
  0.00000000E+000  0.00000000E+000  0.00000000E+000
  0.00000000E+000  0.00000000E+000  0.00000000E+000
  0.00000000E+000  0.00000000E+000  0.00000000E+000
  0.00000000E+000  0.00000000E+000  0.00000000E+000
  0.00000000E+000  0.00000000E+000  0.00000000E+000
  0.00000000E+000  0.00000000E+000  0.00000000E+000
  0.00000000E+000  0.00000000E+000  0.00000000E+000
  0.17300383E+002 -0.43444702E+000 -0.59681445E+000
  0.16794539E+002  0.17788539E+000 -0.22062331E+001
  0.16436944E+002  0.70554790E+000 -0.10867112E+001
  0.16274297E+002  0.93609381E+000 -0.75808066E+000
  0.15898606E+002  0.12682987E+001 -0.32311203E+000
  0.15769121E+002  0.13684515E+001  0.41379854E+000
  0.16062931E+002  0.11009383E+001  0.95204834E+000
  0.16335519E+002  0.81342425E+000  0.11891472E+001
  0.16779484E+002  0.34278919E+000  0.14542275E+000
  0.16787895E+002  0.16485185E+000 -0.29967027E+000
  0.17316221E+002 -0.48245146E+000 -0.60266905E+000
  0.16809326E+002  0.12760093E+000 -0.22994166E+001
  0.16453798E+002  0.69536377E+000 -0.10655092E+001
  0.16266544E+002  0.94430940E+000 -0.75996829E+000
  0.15788804E+002  0.13742384E+001 -0.32501577E+000
  0.15646053E+002  0.14853656E+001  0.44289016E+000
  0.16019245E+002  0.11467880E+001  0.98309943E+000
  0.16350226E+002  0.80569264E+000  0.11707103E+001
  0.16791825E+002  0.33633991E+000 -0.35476886E-002
  0.16793822E+002  0.15302744E+000 -0.28708852E+000
  0.17306069E+002 -0.49528908E+000 -0.10363674E+000
  0.16796697E+002  0.77912864E-001 -0.24712843E+001
  0.16477062E+002  0.67810235E+000 -0.10344898E+001
  0.16246370E+002  0.96631150E+000 -0.78086789E+000
  0.15685695E+002  0.14762397E+001 -0.34227595E+000
  0.15518543E+002  0.16102965E+001  0.47399257E+000
  0.15979607E+002  0.11893988E+001  0.10174510E+001
  0.16372975E+002  0.78925969E+000  0.11402064E+001
  0.16841608E+002  0.30545503E+000  0.22742061E+000
  0.16800321E+002  0.14094377E+000 -0.27446573E+000
  0.17338855E+002 -0.59346045E+000 -0.63948368E-001
  0.16853656E+002 -0.46955338E-002 -0.24761570E+001
  0.16507539E+002  0.65258605E+000 -0.99264375E+000
  0.16241017E+002  0.97325049E+000 -0.77711600E+000
  0.15599045E+002  0.15642878E+001 -0.35588507E+000
  0.15412035E+002  0.17180389E+001  0.50005203E+000
  0.15956883E+002  0.12153243E+001  0.10274837E+001
  0.16402754E+002  0.76478126E+000  0.10991044E+001
  0.16871276E+002  0.28843805E+000  0.15491709E+000
  0.16804029E+002  0.13437799E+000 -0.26067870E+000
  0.17369155E+002 -0.68395218E+000 -0.28185504E-001
  0.16859004E+002 -0.87381459E-001 -0.29005727E+001
  0.16545098E+002  0.61868958E+000 -0.94071361E+000
  0.16249968E+002  0.96365959E+000 -0.75914715E+000
  0.15536120E+002  0.16298702E+001 -0.37114911E+000
  0.15331344E+002  0.18022167E+001  0.51725910E+000
  0.15952852E+002  0.12220197E+001  0.10202052E+001
  0.16441191E+002  0.73023097E+000  0.10413787E+001
  0.16849977E+002  0.30120461E+000  0.11373140E+000
  0.16814663E+002  0.11486627E+000 -0.24851738E+000
  0.17236401E+002 -0.24392912E+000  0.69397465E-001
  0.16794323E+002  0.57433823E-001 -0.18862580E+001
  0.16592080E+002  0.57387639E+000 -0.84233458E+000
  0.16275153E+002  0.93561115E+000 -0.73408292E+000
  0.15512788E+002  0.16544782E+001 -0.36800319E+000
  0.15294528E+002  0.18424379E+001  0.52252854E+000
  0.15970274E+002  0.12059374E+001  0.10011166E+001
  0.16490237E+002  0.68351996E+000  0.95366283E+000
  0.16898414E+002  0.28948579E+000  0.13641653E+000
  0.16794984E+002  0.15252909E+000 -0.22715667E+000
  0.17235224E+002 -0.24203327E+000  0.76632792E-001
  0.16760961E+002  0.12525856E-001 -0.19441515E+001
  0.16643210E+002  0.52314253E+000 -0.76279788E+000
  0.16322424E+002  0.88208860E+000 -0.68111701E+000
  0.15530043E+002  0.16362929E+001 -0.35131145E+000
  0.15305387E+002  0.18337632E+001  0.51238962E+000
  0.16017992E+002  0.11571266E+001  0.94747881E+000
  0.16543611E+002  0.63102999E+000  0.87243141E+000
  0.16933844E+002  0.29379866E+000 -0.80710418E-001
  0.16798916E+002  0.14651519E+000 -0.21130380E+000
  0.17239627E+002 -0.19158562E+000 -0.34482842E+000
  0.16922668E+002 -0.20190686E+000 -0.24202022E+001
  0.16699927E+002  0.46503974E+000 -0.68506462E+000
  0.16391887E+002  0.80273681E+000 -0.60779793E+000
  0.15605874E+002  0.15554880E+001 -0.32279494E+000
  0.15383671E+002  0.17544410E+001  0.48217867E+000
  0.16097244E+002  0.10737500E+001  0.86264753E+000
  0.16603550E+002  0.57029346E+000  0.78054579E+000
  0.16897246E+002  0.25338429E+000  0.20540290E+000
  0.16802962E+002  0.14046087E+000 -0.19512915E+000
  0.17238361E+002 -0.21107437E+000 -0.24858957E+000
  0.16832541E+002 -0.13030154E+000 -0.20690660E+001
  0.16761011E+002  0.40051892E+000 -0.58288741E+000
  0.16483183E+002  0.69768378E+000 -0.51031319E+000
  0.15507064E+002  0.16329571E+001 -0.27441567E+000
  0.15282018E+002  0.18295252E+001  0.43461804E+000
  0.16210995E+002  0.95425561E+000  0.75244843E+000
  0.16410228E+002  0.74499026E+000  0.11009812E+001
  0.16910065E+002  0.23736846E+000  0.24430417E+000
  0.16806866E+002  0.13419851E+000 -0.17886880E+000
  0.17313365E+002 -0.48411222E+000 -0.47413237E+000
  0.16740237E+002 -0.14799906E+000 -0.18940286E+001
  0.16573568E+002  0.56457359E+000 -0.89394570E+000
  0.16595467E+002  0.56802409E+000 -0.39307220E+000
  0.15767084E+002  0.13611503E+001 -0.21819957E+000
  0.15570685E+002  0.15365511E+001  0.36187354E+000
  0.16353840E+002  0.80057535E+000  0.61115349E+000
  0.16505015E+002  0.64646222E+000  0.95000113E+000
  0.16961193E+002  0.25907480E+000  0.25974258E+000
  0.16810863E+002  0.12777090E+000 -0.16230365E+000
  0.17299701E+002 -0.47391650E+000 -0.33030111E+000
  0.16640855E+002 -0.20645531E+000 -0.17280496E+001
  0.16663304E+002  0.47107066E+000 -0.77508050E+000
  0.16721183E+002  0.42177520E+000 -0.27126475E+000
  0.16077680E+002  0.10358733E+001 -0.14372593E+000
  0.15916621E+002  0.11835893E+001  0.27293975E+000
  0.16518378E+002  0.62137503E+000  0.45599223E+000
  0.16598614E+002  0.54995446E+000  0.81194480E+000
  0.16973638E+002  0.21355937E+000  0.27360473E+000
  0.16847346E+002  0.60511412E-001 -0.14338603E+000
  0.17426555E+002 -0.87721412E+000 -0.41165684E+000
  0.17005735E+002 -0.17099998E-001 -0.62329760E+000
  0.16753395E+002  0.37089189E+000 -0.62182751E+000
  0.16853301E+002  0.26596845E+000 -0.14285259E+000
  0.16410393E+002  0.68211760E+000 -0.75239392E-001
  0.16291025E+002  0.79464188E+000  0.17481843E+000
  0.16695335E+002  0.42532007E+000  0.28908509E+000
  0.16687429E+002  0.45214706E+000  0.67957170E+000
  0.16984813E+002  0.18166559E+000  0.25357944E+000
  0.16847247E+002  0.60307931E-001 -0.13288068E+000
  0.17352421E+002 -0.63913556E+000 -0.35955709E+000
  0.17105445E+002 -0.11783707E+000 -0.21377546E+000
  0.16839063E+002  0.27489136E+000 -0.47385797E+000
  0.16982513E+002  0.10959882E+000 -0.15559684E-001
  0.16735485E+002  0.32727447E+000 -0.73160602E-002
  0.16659011E+002  0.40044453E+000  0.75741767E-001
  0.16873645E+002  0.22185740E+000  0.11368879E+000
  0.16776841E+002  0.35336126E+000  0.52949349E+000
  0.16742147E+002  0.38663103E+000  0.61786399E+000
  0.16846494E+002  0.62296803E-001 -0.11161540E+000
  0.17313368E+002 -0.52233583E+000 -0.27906930E+000
  0.16703351E+002 -0.64546146E-001  0.24131797E+000
  0.16918657E+002  0.18291060E+000 -0.33490736E+000
  0.17101818E+002 -0.39656195E-001  0.11000181E+000
  0.17023489E+002 -0.18966956E-002  0.53432323E-001
  0.16988162E+002  0.32401292E-001 -0.17171115E-001
  0.17037297E+002  0.27598023E-001 -0.45497558E-001
  0.16859759E+002  0.25900249E+000  0.38983653E+000
  0.16776421E+002  0.34546376E+000  0.57104009E+000
  0.16972571E+002 -0.16833145E-001  0.64901138E-001
  0.17240625E+002 -0.34477727E+000 -0.46809302E+000
  0.16902751E+002 -0.28817418E-001  0.54452567E+000
  0.16989881E+002  0.95225855E-001 -0.20691003E+000
  0.17201938E+002 -0.17115663E+000  0.21433510E+000
  0.17252474E+002 -0.28174856E+000  0.10424145E+000
  0.17252313E+002 -0.28556887E+000 -0.96384695E-001
  0.17178524E+002 -0.14908966E+000 -0.18755342E+000
  0.16932347E+002  0.17092659E+000  0.27424573E+000
  0.16807594E+002  0.31607758E+000  0.48051753E+000
  0.17004014E+002 -0.81762422E-001  0.57002634E-001
  0.17215845E+002 -0.25709916E+000 -0.31848842E+000
  0.16980590E+002  0.38274768E-001  0.70736512E+000
  0.17052695E+002  0.15845726E-001 -0.12034869E+000
  0.17280529E+002 -0.28138961E+000  0.29950231E+000
  0.17415377E+002 -0.49871405E+000  0.14253088E+000
  0.17443210E+002 -0.53677741E+000 -0.15832469E+000
  0.17291146E+002 -0.30007546E+000 -0.30679322E+000
  0.16998290E+002  0.89170025E-001  0.15731222E+000
  0.16871267E+002  0.25180905E+000  0.26704219E+000
  0.17005547E+002 -0.89477690E-001  0.70202436E-001
  0.17208844E+002 -0.23183310E+000 -0.19515007E+000
  0.16992442E+002  0.39437024E-001  0.60234699E+000
  0.17107176E+002 -0.57432897E-001 -0.14252373E-001
  0.17337588E+002 -0.36793311E+000  0.36477852E+000
  0.17515308E+002 -0.64804477E+000  0.17126705E+000
  0.17562625E+002 -0.71255950E+000 -0.20261819E+000
  0.17373733E+002 -0.42050095E+000 -0.39984633E+000
  0.17055018E+002  0.15591947E-001  0.54117521E-001
  0.16875584E+002  0.24174191E+000  0.26544157E+000
  0.16988246E+002 -0.60450364E-001  0.86716025E-001
  0.17201685E+002 -0.21365626E+000 -0.10174371E+000
  0.17014724E+002 -0.24248729E-001  0.95606458E+000
  0.17153938E+002 -0.12051116E+000  0.78457355E-001
  0.17375181E+002 -0.43092442E+000  0.41057926E+000
  0.17565878E+002 -0.73558290E+000  0.18516530E+000