# vtk DataFile Version 2.0
BldPointCP.BldA
ASCII
 
DATASET POLYDATA
POINTS 9 double
 -0.10792843E+002 -0.32459045E+001  0.10652755E+003
 -0.26846933E+002 -0.80791861E+001  0.94934569E+002
 -0.39480828E+002 -0.11960414E+002  0.82661336E+002
 -0.47926067E+002 -0.14603276E+002  0.70315310E+002
 -0.50666497E+002 -0.15476992E+002  0.58314704E+002
 -0.47931497E+002 -0.14630198E+002  0.46318676E+002
 -0.39474255E+002 -0.11970950E+002  0.33971108E+002
 -0.26895734E+002 -0.80810784E+001  0.21626894E+002
 -0.10981061E+002 -0.32859193E+001  0.98269832E+001
  
POINT_DATA 9
SCALARS Gamma_LL double
LOOKUP_TABLE default
 -0.41442781E+001
 -0.15807437E+003
 -0.14278590E+003
 -0.11126245E+003
 -0.94356756E+002
 -0.86469030E+002
 -0.10184212E+003
 -0.13985695E+003
 -0.60577785E+002
VECTORS Vind_CP double
  0.10871085E+000 -0.28152129E+000  0.10750571E+000
 -0.60130237E+000  0.18871767E-001  0.58238319E+000
 -0.87647094E+000 -0.40020286E-001  0.61373115E+000
 -0.10729027E+001 -0.11841470E+000  0.34894456E+000
 -0.10187131E+001 -0.18266579E+000  0.27352768E-001
 -0.88736398E+000 -0.10933309E+000 -0.22044854E+000
 -0.68164952E+000 -0.41547279E-001 -0.43346415E+000
 -0.59173349E+000 -0.27750177E-001 -0.55150230E+000
 -0.20198010E+000 -0.32069158E-002 -0.75078600E-001
VECTORS Vtot_CP double
  0.90400499E+001  0.19334163E+002 -0.15386231E+001
  0.81781994E+000  0.49673682E+002 -0.33409677E+001
 -0.70366038E+001  0.73618330E+002 -0.36242823E+001
 -0.13938275E+002  0.89802272E+002 -0.29211090E+001
 -0.16369133E+002  0.95196210E+002 -0.28064850E+001
 -0.14053150E+002  0.89831500E+002 -0.27503414E+001
 -0.73511148E+001  0.73347583E+002 -0.19827309E+001
  0.13283486E+001  0.49440352E+002 -0.98793705E+000
  0.10997414E+002  0.20046031E+002 -0.94877656E-001
VECTORS Vstr_CP double
  0.82686609E+001 -0.19615685E+002  0.16461288E+001
  0.15780878E+002 -0.49654810E+002  0.39233509E+001
  0.23360133E+002 -0.73658350E+002  0.42380134E+001
  0.30065372E+002 -0.89920686E+002  0.32700535E+001
  0.32550420E+002 -0.95378876E+002  0.28338377E+001
  0.30365786E+002 -0.89940833E+002  0.25298928E+001
  0.23869465E+002 -0.73389130E+002  0.15492667E+001
  0.15279918E+002 -0.49468103E+002  0.43643475E+000
  0.60006059E+001 -0.20049238E+002  0.19799056E-001
VECTORS Vwnd_CP double
  0.17200000E+002  0.00000000E+000  0.00000000E+000
  0.17200000E+002  0.00000000E+000  0.00000000E+000
  0.17200000E+002  0.00000000E+000  0.00000000E+000
  0.17200000E+002  0.00000000E+000  0.00000000E+000
  0.17200000E+002  0.00000000E+000  0.00000000E+000
  0.17200000E+002  0.00000000E+000  0.00000000E+000
  0.17200000E+002  0.00000000E+000  0.00000000E+000
  0.17200000E+002  0.00000000E+000  0.00000000E+000
  0.17200000E+002  0.00000000E+000  0.00000000E+000
VECTORS Tangent double
 -0.88536687E+000  0.46474815E+000 -0.11604161E-001
 -0.29234163E+000  0.95631373E+000 -0.65203528E-003
 -0.28876253E+000  0.95739784E+000 -0.23607627E-002
 -0.27517731E+000  0.96138396E+000 -0.42821116E-002
 -0.26954966E+000  0.96298649E+000  0.32411485E-004
 -0.27058464E+000  0.96269390E+000  0.21005172E-002
 -0.27482107E+000  0.96149430E+000  0.14478288E-002
 -0.27945423E+000  0.96015831E+000  0.11654715E-002
 -0.28240455E+000  0.95929508E+000  0.79140764E-003
VECTORS Normal double
 -0.30082888E+000 -0.55370547E+000  0.77647424E+000
 -0.61151432E+000 -0.18641341E+000  0.76896052E+000
 -0.69003142E+000 -0.20641106E+000  0.69372265E+000
 -0.86465164E+000 -0.24553744E+000  0.43827949E+000
 -0.96298540E+000 -0.26954940E+000  0.14935115E-002
 -0.86510998E+000 -0.24219834E+000 -0.43923194E+000
 -0.69266675E+000 -0.19693808E+000 -0.69385025E+000
 -0.62124891E+000 -0.17988882E+000 -0.76268591E+000
 -0.49107311E+000 -0.14385702E+000 -0.85915794E+000
VECTORS Orth double
 -0.35443968E+000 -0.69095543E+000 -0.63004214E+000
 -0.73524595E+000 -0.22519790E+000 -0.63929594E+000
 -0.66368128E+000 -0.20195011E+000 -0.72023837E+000
 -0.42030345E+000 -0.12430711E+000 -0.89882854E+000
 -0.14469679E-002 -0.37136373E-003 -0.99999888E+000
  0.42233716E+000  0.12066660E+000 -0.89837124E+000
  0.66684792E+000  0.19168753E+000 -0.72011786E+000
  0.73208956E+000  0.21385985E+000 -0.64676800E+000
  0.82407213E+000  0.24301875E+000 -0.51170989E+000
