# vtk DataFile Version 2.0
BldPointCP.BldB
ASCII
 
DATASET POLYDATA
POINTS 9 double
  0.35640719E+001  0.10951823E+002  0.10629440E+003
  0.85341517E+001  0.26855652E+002  0.94531182E+002
  0.12544915E+002  0.39581812E+002  0.82378908E+002
  0.15243660E+002  0.48102942E+002  0.70111891E+002
  0.16097410E+002  0.50783162E+002  0.58086499E+002
  0.15230172E+002  0.48023546E+002  0.46075063E+002
  0.12529544E+002  0.39497162E+002  0.33797755E+002
  0.85077845E+001  0.26814583E+002  0.21592252E+002
  0.34672413E+001  0.10924873E+002  0.98391885E+001
  
POINT_DATA 9
SCALARS Gamma_LL double
LOOKUP_TABLE default
  0.11403790E+003
  0.51478077E+002
  0.18775874E+002
  0.28794885E+002
  0.51080533E+002
  0.43549698E+002
  0.30028876E+002
  0.42894831E+002
  0.50644209E+002
VECTORS Vind_CP double
  0.25876593E-001 -0.95389922E-001 -0.47958686E+000
 -0.58928787E-001 -0.10611183E+000 -0.16319451E+000
 -0.27799314E-001 -0.63627596E-001 -0.70709810E-002
 -0.63688478E-001 -0.26929953E+000 -0.32044727E-001
 -0.14436933E+000 -0.54641603E+000  0.17438862E-001
 -0.10908159E+000 -0.39964280E+000  0.11241539E+000
 -0.55784230E-001 -0.16009230E+000  0.89035259E-001
 -0.61028856E-001 -0.16055308E+000  0.15724309E+000
 -0.96374042E-001 -0.65636726E-001  0.13701578E+000
VECTORS Vtot_CP double
  0.35108190E+002 -0.67246394E+001  0.29004638E+000
  0.64732446E+002 -0.16423478E+002  0.49047565E+000
  0.88228424E+002 -0.24658727E+002 -0.47078153E+000
  0.10412219E+003 -0.28941122E+002 -0.41281205E+000
  0.10918648E+003 -0.29440685E+002  0.14968920E+000
  0.10396101E+003 -0.27804721E+002  0.56972002E+000
  0.88235614E+002 -0.23325648E+002  0.85502640E+000
  0.65342959E+002 -0.15873088E+002  0.53859275E+000
  0.36781827E+002 -0.63127167E+001  0.10844443E+000
VECTORS Vstr_CP double
 -0.17882313E+002  0.66292494E+001 -0.76963324E+000
 -0.47591374E+002  0.16317366E+002 -0.65367016E+000
 -0.71056223E+002  0.24595099E+002  0.46371055E+000
 -0.86985874E+002  0.28671822E+002  0.38076732E+000
 -0.92130849E+002  0.28894269E+002 -0.13225034E+000
 -0.86870090E+002  0.27405078E+002 -0.45730464E+000
 -0.71091398E+002  0.23165556E+002 -0.76599115E+000
 -0.48203988E+002  0.15712535E+002 -0.38134966E+000
 -0.19678201E+002  0.62470800E+001  0.28571351E-001
VECTORS Vwnd_CP double
  0.17200000E+002  0.00000000E+000  0.00000000E+000
  0.17200000E+002  0.00000000E+000  0.00000000E+000
  0.17200000E+002  0.00000000E+000  0.00000000E+000
  0.17200000E+002  0.00000000E+000  0.00000000E+000
  0.17200000E+002  0.00000000E+000  0.00000000E+000
  0.17200000E+002  0.00000000E+000  0.00000000E+000
  0.17200000E+002  0.00000000E+000  0.00000000E+000
  0.17200000E+002  0.00000000E+000  0.00000000E+000
  0.17200000E+002  0.00000000E+000  0.00000000E+000
VECTORS Tangent double
  0.83668063E+000 -0.54769082E+000  0.53560135E-003
  0.95089442E+000 -0.30951188E+000 -0.14846545E-002
  0.95494255E+000 -0.29678923E+000 -0.94238727E-003
  0.95454715E+000 -0.29805992E+000 -0.12026292E-003
  0.95211662E+000 -0.30573509E+000 -0.51744604E-004
  0.95303891E+000 -0.30284780E+000 -0.18715200E-003
  0.95412492E+000 -0.29940880E+000 -0.80135868E-004
  0.95304167E+000 -0.30283919E+000  0.83239374E-004
  0.95275539E+000 -0.30372062E+000  0.33103062E-002
VECTORS Normal double
  0.29030610E+000  0.44431534E+000  0.84752950E+000
  0.19872009E+000  0.60682400E+000  0.76959402E+000
  0.21052459E+000  0.67513434E+000  0.70701698E+000
  0.26857310E+000  0.85993949E+000  0.43401908E+000
  0.30573187E+000  0.95210734E+000 -0.44321586E-002
  0.27217433E+000  0.85678251E+000 -0.43800099E+000
  0.21254562E+000  0.67750682E+000 -0.70413696E+000
  0.19416187E+000  0.61082074E+000 -0.76759311E+000
  0.15833539E+000  0.48733010E+000 -0.85874285E+000
VECTORS Orth double
  0.46442210E+000  0.70895602E+000 -0.53074802E+000
  0.23729757E+000  0.73209769E+000 -0.63853178E+000
  0.20919879E+000  0.67535899E+000 -0.70719594E+000
  0.12926027E+000  0.41432398E+000 -0.90090367E+000
 -0.14043328E-002 -0.42041119E-002 -0.99999018E+000
 -0.13280799E+000 -0.41738105E+000 -0.89897447E+000
 -0.21087910E+000 -0.67181759E+000 -0.71006417E+000
 -0.23240643E+000 -0.73156438E+000 -0.64093744E+000
 -0.25920469E+000 -0.81869601E+000 -0.51239610E+000
