# vtk DataFile Version 2.0
BldPointCP.BldC
ASCII
 
DATASET POLYDATA
POINTS 9 double
  0.67882509E+001 -0.92481124E+001  0.10634132E+003
  0.16603440E+002 -0.22690991E+002  0.94564159E+002
  0.24451355E+002 -0.33417836E+002  0.82343182E+002
  0.29759492E+002 -0.40662847E+002  0.70086248E+002
  0.31469420E+002 -0.42994589E+002  0.58093972E+002
  0.29755278E+002 -0.40650958E+002  0.46104513E+002
  0.24447197E+002 -0.33400362E+002  0.33847749E+002
  0.16599177E+002 -0.22680132E+002  0.21615879E+002
  0.67691523E+001 -0.92492482E+001  0.98348889E+001
  
POINT_DATA 9
SCALARS Gamma_LL double
LOOKUP_TABLE default
  0.21589320E+002
  0.43890506E+002
  0.31731667E+002
  0.37810180E+002
  0.44462570E+002
  0.42092561E+002
  0.38860819E+002
  0.47420030E+002
  0.13018770E+002
VECTORS Vind_CP double
 -0.49545902E-001 -0.53479701E-001 -0.10447129E+000
 -0.37030869E-001  0.48536065E-001 -0.87360170E-001
 -0.41023253E-001  0.43185217E-001 -0.41057781E-001
 -0.89879916E-001  0.97226427E-001 -0.41404155E-001
 -0.13906472E+000  0.15818022E+000  0.10651528E-002
 -0.10496895E+000  0.11614555E+000  0.53654492E-001
 -0.59021453E-001  0.66822465E-001  0.64539818E-001
 -0.59549290E-001  0.71376290E-001  0.10347847E+000
 -0.37818208E-001 -0.48251602E-001  0.33196233E-001
VECTORS Vtot_CP double
 -0.43713015E+000 -0.12408329E+002  0.40142535E+000
 -0.24407856E+002 -0.29198433E+002  0.14505120E+000
 -0.44006651E+002 -0.42648859E+002 -0.66593273E+000
 -0.56892075E+002 -0.52790035E+002 -0.51116793E+000
 -0.60845321E+002 -0.56603261E+002 -0.37848259E-001
 -0.56729352E+002 -0.53404856E+002  0.31660363E+000
 -0.43734735E+002 -0.43551555E+002  0.48371855E+000
 -0.24086544E+002 -0.29659806E+002  0.11970282E+000
  0.44290275E+000 -0.12289953E+002 -0.14429708E+000
VECTORS Vstr_CP double
  0.17587584E+002  0.12354849E+002 -0.50589664E+000
  0.41570825E+002  0.29246969E+002 -0.23241137E+000
  0.61165627E+002  0.42692044E+002  0.62487495E+000
  0.74002195E+002  0.52887261E+002  0.46976378E+000
  0.77906256E+002  0.56761441E+002  0.38913412E-001
  0.73824383E+002  0.53521001E+002 -0.26294914E+000
  0.60875714E+002  0.43618377E+002 -0.41917873E+000
  0.41226995E+002  0.29731182E+002 -0.16224347E-001
  0.16719279E+002  0.12241702E+002  0.17749331E+000
VECTORS Vwnd_CP double
  0.17200000E+002  0.00000000E+000  0.00000000E+000
  0.17200000E+002  0.00000000E+000  0.00000000E+000
  0.17200000E+002  0.00000000E+000  0.00000000E+000
  0.17200000E+002  0.00000000E+000  0.00000000E+000
  0.17200000E+002  0.00000000E+000  0.00000000E+000
  0.17200000E+002  0.00000000E+000  0.00000000E+000
  0.17200000E+002  0.00000000E+000  0.00000000E+000
  0.17200000E+002  0.00000000E+000  0.00000000E+000
  0.17200000E+002  0.00000000E+000  0.00000000E+000
VECTORS Tangent double
 -0.62381884E+000 -0.78156890E+000  0.32593862E-003
 -0.80674676E+000 -0.59089687E+000  0.74312431E-003
 -0.80791988E+000 -0.58929228E+000  0.28213652E-003
 -0.80719841E+000 -0.59028022E+000 -0.33040944E-004
 -0.80624563E+000 -0.59158091E+000 -0.13760284E-003
 -0.80693242E+000 -0.59064369E+000 -0.31012012E-003
 -0.80745095E+000 -0.58993470E+000 -0.10595378E-003
 -0.80676112E+000 -0.59087774E+000  0.30305651E-004
 -0.80666736E+000 -0.59100497E+000 -0.94844846E-003
VECTORS Normal double
  0.41156912E+000 -0.32814438E+000  0.85025415E+000
  0.38061587E+000 -0.51868900E+000  0.76556730E+000
  0.41822494E+000 -0.57304908E+000  0.70477135E+000
  0.52933219E+000 -0.72387776E+000  0.44250244E+000
  0.59158088E+000 -0.80624544E+000 -0.59573977E-003
  0.52955954E+000 -0.72324703E+000 -0.44326113E+000
  0.41870893E+000 -0.57296557E+000 -0.70455184E+000
  0.38056345E+000 -0.51964553E+000 -0.76494443E+000
  0.30335190E+000 -0.41266908E+000 -0.85888408E+000
VECTORS Orth double
  0.66442524E+000 -0.53053871E+000 -0.52637228E+000
  0.45198587E+000 -0.61790178E+000 -0.64335539E+000
  0.41515464E+000 -0.56951678E+000 -0.70943447E+000
  0.26122436E+000 -0.35716978E+000 -0.89676730E+000
 -0.24148661E-003  0.56171579E-003 -0.99999981E+000
 -0.26158509E+000  0.35784600E+000 -0.89639248E+000
 -0.41557887E+000  0.56893541E+000 -0.70965252E+000
 -0.45200439E+000  0.61711589E+000 -0.64409627E+000
 -0.50721336E+000  0.69312146E+000 -0.51216916E+000
