# vtk DataFile Version 2.0
BldPointCP.BldA
ASCII
 
DATASET POLYDATA
POINTS 9 double
 -0.11146727E+002 -0.22516669E+001  0.10644295E+003
 -0.27507003E+002 -0.55740249E+001  0.94746402E+002
 -0.40470115E+002 -0.82406666E+001  0.82478411E+002
 -0.49205420E+002 -0.10057992E+002  0.70179917E+002
 -0.52040126E+002 -0.10655531E+002  0.58192396E+002
 -0.49213250E+002 -0.10075019E+002  0.46205843E+002
 -0.40475612E+002 -0.82543599E+001  0.33904464E+002
 -0.27531500E+002 -0.55805158E+001  0.21613219E+002
 -0.11234764E+002 -0.22707099E+001  0.98263772E+001
  
POINT_DATA 9
SCALARS Gamma_LL double
LOOKUP_TABLE default
 -0.47668696E+001
 -0.16086770E+003
 -0.14257608E+003
 -0.12277577E+003
 -0.11806227E+003
 -0.11191614E+003
 -0.12091540E+003
 -0.15080034E+003
 -0.71389463E+002
VECTORS Vind_CP double
  0.91320490E-001 -0.24674230E+000  0.11183251E+000
 -0.45131512E+000  0.12590691E-001  0.45473556E+000
 -0.58511114E+000 -0.23687088E-001  0.41262496E+000
 -0.79423463E+000 -0.75772683E-001  0.24957317E+000
 -0.90446120E+000 -0.10547371E+000  0.72995061E-002
 -0.72932157E+000 -0.80758075E-001 -0.20448253E+000
 -0.49918540E+000 -0.29836323E-001 -0.33264145E+000
 -0.46365178E+000 -0.18492806E-001 -0.44338239E+000
 -0.16850466E+000 -0.10426476E-001 -0.66816536E-001
VECTORS Vtot_CP double
  0.11468432E+002  0.19898331E+002 -0.14043076E+001
  0.58306526E+001  0.50516973E+002 -0.28226294E+001
  0.19021592E+000  0.74850757E+002 -0.27107227E+001
 -0.46110025E+001  0.91508001E+002 -0.20278993E+001
 -0.62126650E+001  0.97114320E+002 -0.20419220E+001
 -0.44953993E+001  0.91691688E+002 -0.20133255E+001
  0.33087210E+000  0.74958885E+002 -0.12906016E+001
  0.63200805E+001  0.50540176E+002 -0.60231816E+000
  0.12899806E+002  0.20472798E+002 -0.68238292E-001
VECTORS Vstr_CP double
  0.58228885E+001 -0.20145073E+002  0.15161401E+001
  0.10918032E+002 -0.50504382E+002  0.32773650E+001
  0.16424673E+002 -0.74874444E+002  0.31233477E+001
  0.21016768E+002 -0.91583774E+002  0.22774725E+001
  0.22508204E+002 -0.97219794E+002  0.20492215E+001
  0.20966078E+002 -0.91772446E+002  0.18088430E+001
  0.16369943E+002 -0.74988721E+002  0.95796014E+000
  0.10416268E+002 -0.50558669E+002  0.15893577E+000
  0.41316891E+001 -0.20483224E+002  0.14217562E-002
VECTORS Vwnd_CP double
  0.17200000E+002 -0.00000000E+000  0.00000000E+000
  0.17200000E+002 -0.00000000E+000  0.00000000E+000
  0.17200000E+002 -0.00000000E+000  0.00000000E+000
  0.17200000E+002 -0.00000000E+000  0.00000000E+000
  0.17200000E+002 -0.00000000E+000  0.00000000E+000
  0.17200000E+002 -0.00000000E+000  0.00000000E+000
  0.17200000E+002 -0.00000000E+000  0.00000000E+000
  0.17200000E+002 -0.00000000E+000  0.00000000E+000
  0.17200000E+002 -0.00000000E+000  0.00000000E+000
VECTORS Tangent double
 -0.83933036E+000  0.54359303E+000 -0.55826331E-002
 -0.20239858E+000  0.97930316E+000  0.36097148E-003
 -0.20125713E+000  0.97953844E+000 -0.48300653E-004
 -0.19462070E+000  0.98087771E+000 -0.13037492E-002
 -0.19157829E+000  0.98147732E+000 -0.17109625E-003
 -0.19090460E+000  0.98160859E+000 -0.34112172E-004
 -0.19198034E+000  0.98139877E+000  0.65003013E-004
 -0.19423437E+000  0.98095503E+000  0.48897240E-003
 -0.19596162E+000  0.98061150E+000  0.35108481E-003
VECTORS Normal double
 -0.35112297E+000 -0.53425150E+000  0.76895253E+000
 -0.62979851E+000 -0.13044656E+000  0.76572680E+000
 -0.70074069E+000 -0.14394056E+000  0.69874430E+000
 -0.87988211E+000 -0.17399393E+000  0.44219179E+000
 -0.98147707E+000 -0.19157810E+000  0.77475663E-003
 -0.88048712E+000 -0.17125372E+000 -0.44205723E+000
 -0.70205505E+000 -0.13728909E+000 -0.69876349E+000
 -0.63336981E+000 -0.12502996E+000 -0.76368199E+000
 -0.50181785E+000 -0.99973735E-001 -0.85917641E+000
VECTORS Orth double
 -0.41501470E+000 -0.64736540E+000 -0.63928150E+000
 -0.74992576E+000 -0.15475468E+000 -0.64316587E+000
 -0.68443996E+000 -0.14066112E+000 -0.71537151E+000
 -0.43350923E+000 -0.87206823E-001 -0.89691957E+000
 -0.72762777E-003 -0.31635359E-003 -0.99999969E+000
  0.43393302E+000  0.84360725E-001 -0.89698685E+000
  0.68575670E+000  0.13419449E+000 -0.71535277E+000
  0.74907656E+000  0.14864299E+000 -0.64559242E+000
  0.84248317E+000  0.16854178E+000 -0.51167937E+000
