# vtk DataFile Version 2.0
Sgmt
ASCII
 
DATASET POLYDATA
POINTS 1800 double
  0.34780875E+000  0.84113911E-001  0.11318060E+003
 -0.19314632E+002 -0.65856454E+001  0.10131326E+003
 -0.33147569E+002 -0.11353628E+002  0.89212175E+002
 -0.44369245E+002 -0.15338499E+002  0.76788971E+002
 -0.49974628E+002 -0.17360379E+002  0.64498611E+002
 -0.49986471E+002 -0.17384647E+002  0.52249140E+002
 -0.44351603E+002 -0.15369010E+002  0.39974367E+002
 -0.33131003E+002 -0.11326935E+002  0.27528612E+002
 -0.19461619E+002 -0.66076051E+001  0.15242278E+002
  0.15682071E-003  0.29161636E-004  0.30001956E+001
 -0.39145258E+001 -0.13565935E+001  0.11309774E+003
 -0.20750762E+002 -0.24136619E+001  0.10130706E+003
 -0.34172113E+002 -0.84311452E+001  0.89210126E+002
 -0.45138527E+002 -0.13006709E+002  0.76771950E+002
 -0.50648670E+002 -0.15207683E+002  0.64488832E+002
 -0.50677082E+002 -0.15191185E+002  0.52259483E+002
 -0.45138237E+002 -0.12890563E+002  0.39979161E+002
 -0.34195585E+002 -0.80709450E+001  0.27536195E+002
 -0.20877025E+002 -0.23359998E+001  0.15246124E+002
 -0.14315175E+001  0.42662082E+001  0.30052293E+001
 -0.37667756E+001 -0.12885878E+001  0.11309992E+003
 -0.20632525E+002 -0.20344584E+001  0.10133233E+003
 -0.34166452E+002 -0.78121903E+001  0.89228958E+002
 -0.45211041E+002 -0.12191603E+002  0.76782517E+002
 -0.50756421E+002 -0.14293050E+002  0.64491880E+002
 -0.50781890E+002 -0.14275818E+002  0.52258154E+002
 -0.45202922E+002 -0.12075424E+002  0.39972814E+002
 -0.34179560E+002 -0.74526171E+001  0.27520840E+002
 -0.20759485E+002 -0.19552704E+001  0.15234280E+002
 -0.11847029E+001  0.42927395E+001  0.30047385E+001
 -0.36523682E+001 -0.12220369E+001  0.11310917E+003
 -0.20523250E+002 -0.16479396E+001  0.10133270E+003
 -0.34154019E+002 -0.71690548E+001  0.89199304E+002
 -0.45301342E+002 -0.11338836E+002  0.76759262E+002
 -0.50903760E+002 -0.13333518E+002  0.64466016E+002
 -0.50926416E+002 -0.13314478E+002  0.52224985E+002
 -0.45295667E+002 -0.11224744E+002  0.39937068E+002
 -0.34165422E+002 -0.68182989E+001  0.27494414E+002
 -0.20637047E+002 -0.15693895E+001  0.15222270E+002
 -0.93823158E+000  0.43167297E+001  0.30041580E+001
 -0.35358222E+001 -0.11547634E+001  0.11311855E+003
 -0.20405187E+002 -0.12612051E+001  0.10131908E+003
 -0.34129000E+002 -0.65239177E+001  0.89170480E+002
 -0.45378789E+002 -0.10482326E+002  0.76739338E+002
 -0.51037241E+002 -0.12368919E+002  0.64442471E+002
 -0.51056676E+002 -0.12347861E+002  0.52192075E+002
 -0.45373938E+002 -0.10369368E+002  0.39900795E+002
 -0.34139560E+002 -0.61809037E+001  0.27468847E+002
 -0.20506231E+002 -0.11832486E+001  0.15212513E+002
 -0.69142132E+000  0.43382052E+001  0.30037603E+001
 -0.34171580E+001 -0.10865993E+001  0.11314045E+003
 -0.20275667E+002 -0.87537266E+000  0.10131681E+003
 -0.34090759E+002 -0.58772512E+001  0.89141779E+002
 -0.45438529E+002 -0.96226051E+001  0.76720467E+002
 -0.51155004E+002 -0.11399757E+002  0.64420104E+002
 -0.51173625E+002 -0.11376668E+002  0.52158995E+002
 -0.45436171E+002 -0.95098479E+001  0.39864864E+002
 -0.34101107E+002 -0.55408458E+001  0.27444355E+002
 -0.20365834E+002 -0.79758244E+000  0.15198693E+002
 -0.44439629E+000  0.43579926E+001  0.30043200E+001
 -0.32959491E+001 -0.10176919E+001  0.11314201E+003
 -0.20134083E+002 -0.49092456E+000  0.10132033E+003
 -0.34038479E+002 -0.52295882E+001  0.89112937E+002
 -0.45485011E+002 -0.87598416E+001  0.76704740E+002
 -0.51256820E+002 -0.10426549E+002  0.64400265E+002
 -0.51271648E+002 -0.10401207E+002  0.52127684E+002
 -0.45483555E+002 -0.86465118E+001  0.39828758E+002
 -0.34049051E+002 -0.48986015E+001  0.27421891E+002
 -0.20216109E+002 -0.41155505E+000  0.15198157E+002
 -0.19602673E+000  0.43762231E+001  0.30092526E+001
 -0.31722592E+001 -0.94795743E+000  0.11312402E+003
 -0.19985325E+002 -0.10661017E+000  0.10130066E+003
 -0.33971106E+002 -0.45815726E+001  0.89082396E+002
 -0.45517046E+002 -0.78943628E+001  0.76691620E+002
 -0.51344426E+002 -0.94496981E+001  0.64382835E+002
 -0.51356087E+002 -0.94222209E+001  0.52096664E+002
 -0.45516151E+002 -0.77797812E+001  0.39792489E+002
 -0.33982452E+002 -0.42546649E+001  0.27403507E+002
 -0.20056407E+002 -0.26597084E-001  0.15193759E+002
  0.52453817E-001  0.43930331E+001  0.30137707E+001
 -0.30460340E+001 -0.87733886E+000  0.11312507E+003
 -0.19825242E+002  0.27611055E+000  0.10129224E+003
 -0.33892391E+002 -0.39342864E+001  0.89054997E+002
 -0.45529644E+002 -0.70268576E+001  0.76678845E+002
 -0.51411477E+002 -0.84696741E+001  0.64366506E+002
 -0.51421230E+002 -0.84400661E+001  0.52066753E+002
 -0.45529467E+002 -0.69103867E+001  0.39758371E+002
 -0.33906529E+002 -0.36107423E+001  0.27381964E+002
 -0.19887461E+002  0.35720448E+000  0.15190328E+002
  0.30095636E+000  0.44080585E+001  0.30224374E+001
 -0.29170936E+001 -0.80605566E+000  0.11312661E+003
 -0.19657424E+002  0.65841138E+000  0.10127031E+003
 -0.33796543E+002 -0.32876523E+001  0.89024938E+002
 -0.45519439E+002 -0.61580868E+001  0.76664454E+002
 -0.51454310E+002 -0.74870527E+001  0.64351486E+002
 -0.51465761E+002 -0.74558009E+001  0.52038682E+002
 -0.45519551E+002 -0.60391751E+001  0.39729121E+002
 -0.33809283E+002 -0.29660371E+001  0.27370446E+002
 -0.19709263E+002  0.73990522E+000  0.15189140E+002
  0.54944882E+000  0.44215804E+001  0.30320756E+001
 -0.27850829E+001 -0.73396072E+000  0.11312714E+003
 -0.19479188E+002  0.10386846E+001  0.10124813E+003
 -0.33681776E+002 -0.26426738E+001  0.88990243E+002
 -0.45485438E+002 -0.52902416E+001  0.76650646E+002
 -0.51468561E+002 -0.65041189E+001  0.64334785E+002
 -0.51480461E+002 -0.64703087E+001  0.52014254E+002
 -0.45482660E+002 -0.51672656E+001  0.39706604E+002
 -0.33693983E+002 -0.23216151E+001  0.27364526E+002
 -0.19522450E+002  0.11216269E+001  0.15189191E+002
  0.79801695E+000  0.44333822E+001  0.30388135E+001
 -0.26495553E+001 -0.66072751E+000  0.11311039E+003
 -0.19289725E+002  0.14167355E+001  0.10122565E+003
 -0.33549004E+002 -0.19995145E+001  0.88952971E+002
 -0.45424166E+002 -0.44227064E+001  0.76633185E+002
 -0.51438838E+002 -0.55205793E+001  0.64317279E+002
 -0.51446269E+002 -0.54842012E+001  0.51994976E+002
 -0.45426672E+002 -0.42968600E+001  0.39682297E+002
 -0.33556817E+002 -0.16778400E+001  0.27369315E+002
 -0.19326454E+002  0.15018476E+001  0.15195670E+002
  0.10468702E+001  0.44434331E+001  0.30440729E+001
 -0.25106925E+001 -0.58535238E+000  0.11310074E+003
 -0.19091229E+002  0.17918834E+001  0.10117781E+003
 -0.33397926E+002 -0.13587597E+001  0.88913141E+002
 -0.45335422E+002 -0.35573893E+001  0.76611279E+002
 -0.51359624E+002 -0.45393611E+001  0.64297298E+002
 -0.51367136E+002 -0.45009141E+001  0.51982426E+002
 -0.45336701E+002 -0.34278361E+001  0.39671814E+002
 -0.33400569E+002 -0.10362197E+001  0.27379397E+002
 -0.19125208E+002  0.18799611E+001  0.15196882E+002
  0.12961935E+001  0.44518653E+001  0.30492386E+001
 -0.23682264E+001 -0.50892267E+000  0.11310254E+003
 -0.18902934E+002  0.21677975E+001  0.10114531E+003
 -0.33225055E+002 -0.72065836E+000  0.88866917E+002
 -0.45216399E+002 -0.26946514E+001  0.76583703E+002
 -0.51242103E+002 -0.35628548E+001  0.64277532E+002
 -0.51249402E+002 -0.35224578E+001  0.51973628E+002
 -0.45217047E+002 -0.25613329E+001  0.39670548E+002
 -0.33227791E+002 -0.39662858E+000  0.27395836E+002
 -0.18921983E+002  0.22565777E+001  0.15185366E+002
  0.15460745E+001  0.44590268E+001  0.30542013E+001
 -0.22216704E+001 -0.43141338E+000  0.11310328E+003
 -0.18687315E+002  0.25402994E+001  0.10107822E+003
 -0.33036599E+002 -0.85379749E-001  0.88820568E+002
 -0.45069133E+002 -0.18351962E+001  0.76552495E+002
 -0.51085556E+002 -0.25919972E+001  0.64256308E+002
 -0.51095722E+002 -0.25497988E+001  0.51971059E+002
 -0.45063810E+002 -0.16982681E+001  0.39682883E+002
 -0.33038986E+002  0.24050339E+000  0.27416152E+002
 -0.18700437E+002  0.26330093E+001  0.15194724E+002
  0.17965682E+001  0.44647269E+001  0.30592880E+001
 -0.20707412E+001 -0.35299305E+000  0.11310420E+003
 -0.18461905E+002  0.29115727E+001  0.10102586E+003
 -0.32834318E+002  0.54743490E+000  0.88776952E+002
 -0.44891687E+002 -0.97945090E+000  0.76514018E+002
 -0.50905567E+002 -0.16264824E+001  0.64235719E+002
 -0.50911234E+002 -0.15828679E+001  0.51973379E+002
 -0.44887673E+002 -0.83905324E+000  0.39700810E+002
 -0.32836112E+002  0.87520449E+000  0.27439530E+002
 -0.18471312E+002  0.30075632E+001  0.15203944E+002
  0.20479627E+001  0.44699813E+001  0.30628334E+001
 -0.19154277E+001 -0.27347193E+000  0.11310494E+003
 -0.18229904E+002  0.32825497E+001  0.10097421E+003
 -0.32619764E+002  0.11779302E+001  0.88736651E+002
 -0.44696281E+002 -0.12683102E+000  0.76477161E+002
 -0.50704186E+002 -0.66475446E+000  0.64217070E+002
 -0.50708771E+002 -0.62014055E+000  0.51978583E+002
 -0.44693751E+002  0.16570626E-001  0.39721652E+002
 -0.32621003E+002  0.15075558E+001  0.27464209E+002
 -0.18235807E+002  0.33809272E+001  0.15210920E+002
  0.22995048E+001  0.44740990E+001  0.30665211E+001
 -0.17553341E+001 -0.19333771E+000  0.11310467E+003
 -0.17990540E+002  0.36521073E+001  0.10092423E+003
 -0.32393549E+002  0.18062009E+001  0.88701813E+002
 -0.44482522E+002  0.72267862E+000  0.76443743E+002
 -0.50493796E+002  0.29461756E+000  0.64202878E+002
 -0.50497305E+002  0.33965737E+000  0.51984599E+002
 -0.44482646E+002  0.86860654E+000  0.39744358E+002
 -0.32395008E+002  0.21375134E+001  0.27487751E+002
 -0.17993090E+002  0.37522149E+001  0.15214025E+002
  0.25511430E+001  0.44768815E+001  0.30708848E+001
 -0.15901981E+001 -0.11277989E+000  0.11310339E+003
 -0.17744335E+002  0.40201996E+001  0.10087304E+003
 -0.32160590E+002  0.24329386E+001  0.88676424E+002
 -0.44258383E+002  0.15697646E+001  0.76418181E+002
 -0.50269783E+002  0.12515186E+001  0.64191631E+002
 -0.50273075E+002  0.12964984E+001  0.51992383E+002
 -0.44260431E+002  0.17173513E+001  0.39764792E+002
 -0.32176062E+002  0.27676828E+001  0.27491394E+002
 -0.17744063E+002  0.41217343E+001  0.15226389E+002
  0.28027181E+001  0.44786090E+001  0.30738234E+001
[...]
CELL_DATA 3330
SCALARS Gamma double
LOOKUP_TABLE default
 -0.39498904E+001
  0.39498904E+001
 -0.15630682E+003
  0.15235693E+003
 -0.14183626E+003
 -0.14470561E+002
 -0.10704238E+003
 -0.34793879E+002
 -0.86224206E+002
 -0.20818177E+002
 -0.77282006E+002
 -0.89422006E+001
 -0.93268918E+002
  0.15986913E+002
 -0.13495129E+003
  0.41682371E+002
 -0.56505818E+002
 -0.78445471E+002
 -0.56505818E+002
  0.00000000E+000
  0.39498904E+001
  0.00000000E+000
  0.15235693E+003
  0.00000000E+000
 -0.14470561E+002
  0.00000000E+000
 -0.34793879E+002
  0.00000000E+000
 -0.20818177E+002
  0.00000000E+000
 -0.89422006E+001
  0.00000000E+000
  0.15986913E+002
  0.00000000E+000
  0.41682371E+002
  0.00000000E+000
 -0.78445471E+002
 -0.56505818E+002
 -0.30489562E+000
  0.42547860E+001
 -0.10038020E+001
  0.15305584E+003
 -0.11617918E+001
 -0.14312572E+002
 -0.70968169E+000
 -0.35245989E+002
 -0.27627739E+000
 -0.21251582E+002
 -0.53723907E+000
 -0.86812389E+001
 -0.12960112E+001
  0.16745685E+002
 -0.13202710E+001
  0.41706631E+002
 -0.21895918E+001
 -0.77576151E+002
 -0.58695410E+002
 -0.10635465E+000
  0.43611406E+001
 -0.91854594E+000
  0.15386803E+003
 -0.54655424E+000
 -0.14684563E+002
 -0.23314196E+001
 -0.33461123E+002
 -0.41026291E+001
 -0.19480372E+002
 -0.46741061E+001
 -0.81097619E+001
 -0.43025796E+001
  0.16374158E+002
 -0.24285716E+001
  0.39832623E+002
 -0.20680711E+001
 -0.77936651E+002
 -0.60763481E+002
 -0.11485175E+000
  0.44759924E+001
 -0.83517156E+000
  0.15458835E+003
 -0.38570430E+000
 -0.15134031E+002
 -0.20659429E+001
 -0.31780885E+002
 -0.44499391E+001
 -0.17096376E+002
 -0.48851336E+001
 -0.76745674E+001
 -0.43079570E+001
  0.15796982E+002
 -0.24364484E+001
  0.37961114E+002
 -0.21065739E+001
 -0.78266526E+002
 -0.62870055E+002
 -0.12186431E+000
  0.45978567E+001
 -0.73697808E+000
  0.15520346E+003
 -0.18697577E+000
 -0.15684033E+002
 -0.22518348E+001
 -0.29716026E+002
 -0.49215414E+001
 -0.14426669E+002
 -0.51651845E+001
 -0.74309243E+001
 -0.42935679E+001
  0.14925365E+002
 -0.23938117E+001
  0.36061358E+002
 -0.21508727E+001
 -0.78509465E+002
 -0.65020927E+002
 -0.13068741E+000
  0.47285441E+001
 -0.65029999E+000
  0.15572308E+003
 -0.74135204E-001
 -0.16260198E+002
 -0.23141768E+001
 -0.27475984E+002
 -0.50345155E+001
 -0.11706331E+002
 -0.51552368E+001
 -0.73102029E+001
 -0.42361870E+001
  0.14006315E+002
 -0.22305834E+001
  0.34055755E+002
 -0.21797801E+001
 -0.78560268E+002
 -0.67200707E+002
 -0.13745155E+000
  0.48659957E+001
 -0.55263701E+000
  0.15613826E+003
  0.70155900E-001
 -0.16882991E+002
 -0.23672779E+001
 -0.25038550E+002
 -0.51899116E+001
 -0.88836971E+001
 -0.51982565E+001
 -0.73018580E+001
 -0.39157700E+001
  0.12723829E+002
 -0.21037404E+001
  0.32243725E+002
 -0.22148052E+001
 -0.78449203E+002
 -0.69415513E+002
 -0.14351985E+000
  0.50095155E+001
 -0.44288301E+000
  0.15643763E+003
  0.19745549E+000
 -0.17523329E+002
 -0.24051006E+001
 -0.22435994E+002
 -0.49591754E+001
 -0.63296223E+001
 -0.52127925E+001
 -0.70482410E+001
 -0.32331920E+001
  0.10744228E+002
 -0.20389841E+001
  0.31049517E+002
 -0.22450642E+001
 -0.78243123E+002
 -0.71660577E+002
 -0.13997529E+000
  0.51494908E+001
 -0.92830764E-001
  0.15639048E+003
  0.52297140E+000
 -0.18139131E+002
 -0.23503403E+001
 -0.19562683E+002
 -0.39115262E+001
 -0.47684364E+001
 -0.50048418E+001
 -0.59549254E+001
 -0.29758320E+001
  0.87152186E+001
 -0.17509083E+001
  0.29824593E+002
 -0.21431196E+001
 -0.77850912E+002
 -0.73803696E+002
  0.14837073E-001
  0.51346537E+001
  0.48806848E+001
  0.15152463E+003
  0.49326920E+001
 -0.18191138E+002
  0.12062066E+001
 -0.15836197E+002
 -0.13701543E+000
 -0.34252144E+001
 -0.79400306E+000
 -0.52979378E+001
  0.88270414E+000
  0.70385114E+001
  0.29489499E+001
  0.27758347E+002
  0.14956181E+000
 -0.75051524E+002
 -0.73654135E+002
  0.47592712E+000
  0.46587266E+001
  0.18303795E+002
  0.13369677E+003
  0.16748446E+002
 -0.16635789E+002
  0.12128025E+002
 -0.11215776E+002
  0.10640676E+002
 -0.19378658E+001
  0.10099609E+002
 -0.47568714E+001
  0.11731022E+002
  0.54070988E+001
  0.15972660E+002
  0.23516710E+002
  0.67350539E+001
 -0.65813918E+002
 -0.66919081E+002
  0.83211125E+000
  0.38266154E+001
  0.27867914E+002
  0.10666096E+003
  0.24918373E+002
 -0.13686248E+002
  0.20471167E+002
 -0.67685699E+001
  0.18877183E+002
 -0.34388132E+000
  0.18315604E+002
 -0.41952929E+001
  0.19841319E+002
  0.38813838E+001
  0.25575396E+002
  0.17782634E+002
  0.12482756E+002
 -0.52721278E+002
 -0.54436325E+002
  0.99235881E+000
  0.28342566E+001
  0.31099255E+002
  0.76554066E+002
  0.27415886E+002
 -0.10002878E+002
  0.23975277E+002
 -0.33279609E+001
  0.23038709E+002
  0.59268608E+000
  0.22064967E+002
 -0.32215504E+001
  0.23517145E+002
  0.24292057E+001
  0.29201645E+002
  0.12098133E+002
  0.14721714E+002
 -0.38241348E+002
 -0.39714610E+002
  0.10427003E+001
  0.17915563E+001
  0.30769127E+002
  0.46827639E+002
  0.26983230E+002
 -0.62169816E+001
  0.24776825E+002
 -0.11215561E+001
  0.24504431E+002
  0.86508056E+000
  0.23208485E+002
 -0.19256050E+001
  0.24544431E+002
  0.10932602E+001
  0.29638113E+002
  0.70044515E+001
  0.14999923E+002
 -0.23603158E+002
 -0.24714688E+002
  0.97299534E+000
  0.81856091E+000
  0.27077488E+002
  0.20723147E+002
  0.23657597E+002
 -0.27970910E+001
  0.22649332E+002
 -0.11329133E+000
  0.22929610E+002
  0.58480337E+000
  0.21802107E+002
 -0.79810264E+000
  0.22590109E+002
  0.30525857E+000
  0.26662817E+002
  0.29317436E+001
  0.13579584E+002
 -0.10519925E+002
 -0.11135103E+002
  0.64872544E+000
  0.16983547E+000
  0.17225887E+002
  0.41459856E+001
  0.14985761E+002
 -0.55696483E+000
  0.14823631E+002
  0.48838483E-001
  0.15253043E+002
  0.15539132E+000
  0.14596251E+002
 -0.14131106E+000
  0.14877618E+002
  0.23892066E-001
  0.17257262E+002
  0.55209979E+000
  0.88586096E+001
 -0.21212729E+001
 -0.22764939E+001
  0.16779964E+000
  0.20358333E-002
  0.42656912E+001
  0.48093971E-001
  0.37150864E+001
 -0.63599538E-002
  0.37625785E+001
  0.13463489E-002
  0.39157448E+001
  0.22250323E-002
  0.37758405E+001
 -0.14067937E-002
  0.37998844E+001
 -0.15175484E-003
  0.43459621E+001
  0.60219938E-002
  0.22494345E+001
 -0.24745317E-001
 -0.27059359E-001
  0.20358333E-002
  0.00000000E+000
  0.00000000E+000
  0.50129804E-001
 -0.00000000E+000
  0.00000000E+000
  0.43769850E-001
 -0.00000000E+000
  0.00000000E+000
  0.45116199E-001
 -0.00000000E+000
  0.00000000E+000
  0.47341231E-001
 -0.00000000E+000
  0.00000000E+000
  0.45934438E-001
 -0.00000000E+000
  0.00000000E+000
  0.45782683E-001
 -0.00000000E+000
  0.00000000E+000
  0.51804677E-001
 -0.00000000E+000
  0.00000000E+000
  0.27059359E-001
 -0.00000000E+000
  0.00000000E+000
 -0.00000000E+000
  0.10494551E+003
 -0.10494551E+003
  0.45152289E+002
  0.59793225E+002
  0.16892146E+002
  0.28260144E+002
  0.15041994E+002
  0.18501514E+001
  0.33666379E+002
 -0.18624385E+002
  0.28750152E+002
  0.49162268E+001
  0.19641299E+002
  0.91088529E+001
  0.28010768E+002
 -0.83694691E+001
  0.34594478E+002
 -0.65837096E+001
  0.34594478E+002
  0.00000000E+000
 -0.10494551E+003
  0.00000000E+000
  0.59793225E+002
  0.00000000E+000
  0.28260144E+002
  0.00000000E+000
  0.18501514E+001
  0.00000000E+000
 -0.18624385E+002
  0.00000000E+000
  0.49162268E+001
  0.00000000E+000
  0.91088529E+001
  0.00000000E+000
 -0.83694691E+001
  0.00000000E+000
 -0.65837096E+001
  0.34594478E+002
  0.13922047E+001
 -0.10633772E+003
  0.30991056E+001
  0.58086324E+002
  0.24973397E+001
  0.28861910E+002
  0.23367361E+001
  0.20107551E+001
  0.22572079E+001
 -0.18544857E+002
  0.23800737E+001
  0.47933610E+001
  0.26978116E+001
  0.87911149E+001
  0.31810266E+001
 -0.88526840E+001
  0.28572363E+001
 -0.62599192E+001
  0.37451714E+002
  0.16945995E+001
 -0.10803232E+003
  0.11167614E+001
  0.58664163E+002
 -0.21576702E+000
  0.30194438E+002
  0.18056585E+001
 -0.10670450E-001
  0.29318999E+001
 -0.19671098E+002
  0.24598582E+001
  0.52654027E+001
  0.14667449E+001
  0.97842282E+001
  0.22233265E+001
 -0.96092657E+001
  0.26368646E+001
 -0.66734573E+001
  0.40088579E+002
  0.16738695E+001
 -0.10970619E+003
  0.10559739E+001
  0.59282058E+002
 -0.68864955E-001
  0.31319277E+002
  0.20128938E+001
 -0.20924292E+001
  0.29845200E+001
 -0.20642724E+002
  0.25227422E+001
  0.57271805E+001
  0.15689689E+001
  0.10738002E+002
  0.23070838E+001
 -0.10347381E+002
  0.26511064E+001
 -0.70174799E+001
  0.42739685E+002
  0.14215351E+001
 -0.11112772E+003
  0.97397706E+000
  0.59729616E+002
  0.74948997E-001
  0.32218305E+002
  0.22549003E+001
 -0.42723805E+001
  0.30791959E+001
 -0.21467020E+002
  0.25802173E+001
  0.62261591E+001
  0.16498703E+001
  0.11668348E+002
  0.23827144E+001
 -0.11080225E+002
  0.26618184E+001
 -0.72965839E+001
  0.45401503E+002
  0.13129184E+001
 -0.11244064E+003
  0.10064808E+001
  0.60036054E+002
  0.37671376E+000
  0.32848072E+002
  0.24961762E+001
 -0.63918429E+001
  0.30924531E+001
 -0.22063297E+002
  0.26212969E+001
  0.66973153E+001
  0.18018780E+001
  0.12487767E+002
  0.25279887E+001
 -0.11806335E+002
  0.26814057E+001
 -0.74500009E+001
  0.48082909E+002
  0.12841358E+001
 -0.11372478E+003
  0.10218390E+001
  0.60298351E+002
  0.66857243E+000
  0.33201339E+002
  0.27242815E+001
 -0.84475520E+001
  0.31058736E+001
 -0.22444889E+002
  0.26295671E+001
  0.71736217E+001
  0.19304997E+001
  0.13186835E+002
  0.26616870E+001
 -0.12537523E+002
  0.26972408E+001
 -0.74855547E+001
  0.50780150E+002
  0.11519653E+001
 -0.11487674E+003
  0.10830052E+001
  0.60367311E+002
  0.10138338E+001
  0.33270510E+002
  0.29061155E+001
 -0.10339834E+002
  0.30168516E+001
 -0.22555625E+002
  0.25732902E+001
  0.76171830E+001
  0.20742879E+001
  0.13685837E+002
  0.28322246E+001
 -0.13295459E+002
  0.27283583E+001
 -0.73816885E+001
  0.53508508E+002
  0.62716214E+000
 -0.11550391E+003
  0.10896381E+001
  0.59904835E+002
  0.13834750E+001
  0.32976673E+002
  0.30181911E+001
 -0.11974550E+002
  0.27747242E+001
 -0.22312158E+002
  0.24218867E+001
  0.79700206E+001
  0.21885717E+001
  0.13919152E+002
  0.29364170E+001
 -0.14043304E+002
  0.26655115E+001
 -0.71107830E+001
  0.56174020E+002
 -0.28959937E+001
 -0.11260791E+003
 -0.48009835E+000
  0.57488939E+002
  0.10877219E+001
  0.31408853E+002
  0.19778335E+001
 -0.12864662E+002
  0.71827404E+000
 -0.21052598E+002
  0.73400206E+000
  0.79542925E+001
  0.12293416E+001
  0.13423813E+002
  0.15715189E+001
 -0.14385482E+002
  0.92866735E+000
 -0.64679314E+001
  0.57102687E+002
 -0.12602314E+002
 -0.10000560E+003
 -0.52290479E+001
  0.50115674E+002
 -0.75883078E+000
  0.26938636E+002
 -0.15209807E+001
 -0.12102512E+002
 -0.48403114E+001
 -0.17733268E+002
 -0.39698689E+001
  0.70838501E+001
 -0.20334040E+001
  0.11487348E+002
 -0.30433522E+001
 -0.13375534E+002
 -0.43170140E+001
 -0.51942696E+001
  0.52785673E+002
 -0.19765346E+002
 -0.80240252E+002
 -0.88862138E+001
  0.39236541E+002
 -0.26267096E+001
  0.20679132E+002
 -0.48235155E+001
 -0.99057057E+001
 -0.93638934E+001
 -0.13192890E+002
 -0.78432373E+001
  0.55631940E+001
 -0.49671768E+001
  0.86112870E+001
 -0.71011572E+001
 -0.11241553E+002
 -0.86556926E+001
 -0.36397342E+001
  0.44129981E+002
 -0.22240400E+002
 -0.57999852E+002
 -0.10510455E+002
  0.27506596E+002
 -0.39498849E+001
  0.14118562E+002
 -0.68456066E+001
 -0.70099840E+001
 -0.11448451E+002
 -0.85900453E+001
 -0.96926403E+001
  0.38073832E+001
 -0.66721349E+001
  0.55907816E+001
 -0.94491412E+001
 -0.84645468E+001
 -0.10904937E+002
 -0.21839384E+001
  0.33225043E+002
 -0.22238158E+002
 -0.35761694E+002
 -0.11071798E+002
  0.16340236E+002
 -0.50772428E+001
  0.81240071E+001
 -0.80530541E+001
 -0.40341727E+001
 -0.12045193E+002
 -0.45979064E+001
 -0.10367287E+002
  0.21294770E+001
 -0.77188607E+001
  0.29423555E+001
 -0.10764720E+002
 -0.54186876E+001
 -0.11897044E+002
 -0.10516144E+001
  0.21328000E+002
 -0.19801747E+002
 -0.15959946E+002
 -0.10431548E+002
  0.69700364E+001
 -0.56400549E+001
  0.33325139E+001
 -0.81041948E+001
 -0.15700328E+001
 -0.11011162E+002
 -0.16909396E+001
 -0.96864267E+001
  0.80474206E+000
 -0.77734533E+001
  0.10293821E+001
 -0.10713530E+002
 -0.24786105E+001
 -0.11444404E+002
 -0.32074043E+000
  0.98835952E+001
 -0.12734296E+002
 -0.32256505E+001
 -0.70919756E+001
  0.13277161E+001
 -0.43707978E+001
  0.61133605E+000
 -0.56838027E+001
 -0.25702784E+000
 -0.71110926E+001
 -0.26364967E+000
 -0.64318326E+001
  0.12548201E+000
 -0.55503317E+001
  0.14788120E+000
 -0.75239556E+001
 -0.50498659E+000
 -0.78048641E+001
 -0.39831881E-001
  0.20787311E+001
 -0.31878192E+001
 -0.37831218E-001
 -0.18745597E+001
  0.14456477E-001
 -0.12697514E+001
  0.65277625E-002
 -0.15248765E+001
 -0.19027177E-002
 -0.17864326E+001
 -0.20935815E-002
 -0.16619089E+001
  0.95830135E-003
 -0.15148379E+001
  0.81028700E-003
 -0.20138719E+001
 -0.59526030E-002
 -0.20534908E+001
 -0.21301071E-003
  0.25240302E-001
 -0.37831218E-001
 -0.00000000E+000
 -0.00000000E+000
 -0.23374740E-001
 -0.00000000E+000
 -0.00000000E+000
 -0.16846978E-001
 -0.00000000E+000
 -0.00000000E+000
 -0.18749696E-001
 -0.00000000E+000
 -0.00000000E+000
 -0.20843277E-001
 -0.00000000E+000
 -0.00000000E+000
 -0.19884976E-001
 -0.00000000E+000
 -0.00000000E+000
 -0.19074689E-001
 -0.00000000E+000
 -0.00000000E+000
 -0.25027292E-001
 -0.00000000E+000
 -0.00000000E+000
 -0.25240302E-001
 -0.00000000E+000
 -0.00000000E+000
  0.00000000E+000
  0.61395163E+002
 -0.61395163E+002
  0.10997389E+003
 -0.48578730E+002
  0.86227306E+002
  0.23746587E+002
  0.95900615E+002
 -0.96733091E+001
  0.10540969E+003
 -0.95090770E+001
  0.10683968E+003
 -0.14299883E+001
  0.10103747E+003
  0.58022118E+001
  0.11447776E+003
 -0.13440290E+002
  0.33349510E+002
  0.81128248E+002
  0.33349510E+002
  0.00000000E+000
 -0.61395163E+002
  0.00000000E+000
 -0.48578730E+002
  0.00000000E+000
  0.23746587E+002
  0.00000000E+000
 -0.96733091E+001
  0.00000000E+000
 -0.95090770E+001
  0.00000000E+000
 -0.14299883E+001
  0.00000000E+000
  0.58022118E+001
  0.00000000E+000
 -0.13440290E+002
  0.00000000E+000
  0.81128248E+002
  0.33349510E+002
 -0.12262751E+001
 -0.60168888E+002
 -0.14308752E+001
 -0.48374130E+002
 -0.13294840E+001
  0.23645196E+002
 -0.15137873E+001
 -0.94890058E+001
 -0.14045021E+001
 -0.96183622E+001
 -0.12390237E+001
 -0.15954667E+001
 -0.11394428E+001
  0.57026308E+001
 -0.14973053E+001
 -0.13082427E+002
 -0.49459926E+000
  0.80125542E+002
  0.32854911E+002
 -0.13644040E+001
 -0.58804484E+002
 -0.17435420E+001
 -0.47994992E+002
 -0.26429850E+001
  0.24544639E+002
 -0.18159671E+001
 -0.10316024E+002
 -0.55119985E+000
 -0.10883129E+002
 -0.10494785E+001
 -0.10971881E+001
 -0.20005640E+001
  0.66537164E+001
 -0.17455463E+001
 -0.13337445E+002
 -0.47520183E+000
  0.78855198E+002
  0.32379709E+002
 -0.13898846E+001
 -0.57414600E+002
 -0.17889428E+001
 -0.47595934E+002
 -0.25843091E+001
  0.25340006E+002
 -0.17456412E+001
 -0.11154692E+002
 -0.51995052E+000
 -0.12108820E+002
 -0.11027743E+001
 -0.51436433E+000
 -0.20289421E+001
  0.75798842E+001
 -0.17202699E+001
 -0.13646117E+002
 -0.54725414E+000
  0.77682182E+002
  0.31832455E+002
 -0.14186744E+001
 -0.55995925E+002
 -0.18271392E+001
 -0.47187469E+002
 -0.25183082E+001
  0.26031175E+002
 -0.16729732E+001
 -0.12000027E+002
 -0.52770097E+000
 -0.13254092E+002
 -0.11788652E+001
  0.13679992E+000
 -0.20471715E+001
  0.84481906E+001
 -0.17569523E+001
 -0.13936337E+002
 -0.60881164E+000
  0.76534041E+002
  0.31223643E+002
 -0.14206875E+001
 -0.54575238E+002
 -0.18193734E+001
 -0.46788783E+002
 -0.23913858E+001
  0.26603187E+002
 -0.16298284E+001
 -0.12761584E+002
 -0.63926223E+000
 -0.14244659E+002
 -0.12668876E+001
  0.76442524E+000
 -0.19921328E+001
  0.91734358E+001
 -0.17087849E+001
 -0.14219684E+002
 -0.60742859E+000
  0.75432685E+002
  0.30616215E+002
 -0.14506000E+001
 -0.53124638E+002
 -0.18184543E+001
 -0.46420929E+002
 -0.22574240E+001
  0.27042157E+002
 -0.15816356E+001
 -0.13437372E+002
 -0.74850386E+000
 -0.15077790E+002
 -0.15677516E+001
  0.15836730E+001
 -0.19600528E+001
  0.95657370E+001
 -0.16559344E+001
 -0.14523803E+002
 -0.60607043E+000
  0.74382821E+002
  0.30010144E+002
 -0.14771720E+001
 -0.51647466E+002
 -0.18073547E+001
 -0.46090746E+002
 -0.20989389E+001
  0.27333741E+002
 -0.15466766E+001
 -0.13989635E+002
 -0.88625950E+000
 -0.15738207E+002
 -0.17799275E+001
  0.24773410E+001
 -0.19260392E+001
  0.97118486E+001
 -0.15893747E+001
 -0.14860467E+002
 -0.60316145E+000
  0.73396608E+002
  0.29406983E+002
 -0.15138546E+001
 -0.50133611E+002
 -0.19359266E+001
 -0.45668674E+002
 -0.20075771E+001
  0.27405391E+002
 -0.16190547E+001
 -0.14378157E+002
 -0.11653775E+001
 -0.16191885E+002
 -0.20317160E+001
  0.33436796E+001
 -0.20053873E+001
  0.96855198E+001
 -0.16678422E+001
 -0.15198012E+002
 -0.64603767E+000
  0.72374803E+002
  0.28760945E+002
 -0.30068415E+001
 -0.47126770E+002
 -0.47207272E+001
 -0.43954788E+002
 -0.37978442E+001
  0.26482508E+002
 -0.40482626E+001
 -0.14127739E+002
 -0.43459059E+001
 -0.15894241E+002
 -0.49767692E+001
  0.39745430E+001
 -0.44853409E+001
  0.91940915E+001
 -0.45649217E+001
 -0.15118432E+002
 -0.14880132E+001
  0.69297894E+002
  0.27272932E+002
 -0.68188349E+001
 -0.40307935E+002
 -0.12197779E+002
 -0.38575845E+002
 -0.88416361E+001
  0.23126366E+002
 -0.10544737E+002
 -0.12424638E+002
 -0.12610496E+002
 -0.13828482E+002
 -0.12536655E+002
  0.39007012E+001
 -0.11121388E+002
  0.77788247E+001
 -0.12527415E+002
 -0.13712404E+002
 -0.37148458E+001
  0.60485325E+002
  0.23558086E+002
 -0.91277294E+001
 -0.31180205E+002
 -0.17022088E+002
 -0.30681486E+002
 -0.12027814E+002
  0.18132092E+002
 -0.14779134E+002
 -0.96733181E+001
 -0.17931352E+002
 -0.10676264E+002
 -0.17347197E+002
  0.33165460E+001
 -0.15364989E+002
  0.57966173E+001
 -0.17791989E+002
 -0.11285405E+002
 -0.51326887E+001
  0.47826025E+002
  0.18425397E+002
 -0.94285308E+001
 -0.21751674E+002
 -0.18113224E+002
 -0.21996792E+002
 -0.12637587E+002
  0.12656455E+002
 -0.15700499E+002
 -0.66104064E+001
 -0.19124492E+002
 -0.72522709E+001
 -0.18240085E+002
  0.24321392E+001
 -0.16208555E+002
  0.37650876E+001
 -0.19134557E+002
 -0.83594026E+001
 -0.54301888E+001
  0.34121657E+002
  0.12995209E+002
 -0.88111280E+001
 -0.12940546E+002
 -0.17364621E+002
 -0.13443300E+002
 -0.12134860E+002
  0.74266936E+001
 -0.15020160E+002
 -0.37251056E+001
 -0.18202912E+002
 -0.40695191E+001
 -0.17222675E+002
  0.14519017E+001
 -0.15451635E+002
  0.19940483E+001
 -0.18533877E+002
 -0.52771613E+001
 -0.51786026E+001
  0.20766383E+002
  0.78166061E+001
 -0.73888130E+001
 -0.55517334E+001
 -0.14859403E+002
 -0.59727103E+001
 -0.10531808E+002
  0.30990986E+001
 -0.12815353E+002
 -0.14415602E+001
 -0.15308397E+002
 -0.15764755E+001
 -0.14442329E+002
  0.58583389E+000
 -0.13152417E+002
  0.70413672E+000
 -0.16048524E+002
 -0.23810543E+001
 -0.44178333E+001
  0.91356917E+001
  0.33987728E+001
 -0.44720828E+001
 -0.10796506E+001
 -0.92379513E+001
 -0.12068418E+001
 -0.67130300E+001
  0.57417728E+000
 -0.79160876E+001
 -0.23850265E+000
 -0.92326540E+001
 -0.25990912E+000
 -0.87457936E+001
  0.98973503E-001
 -0.81446344E+001
  0.10297754E+000
 -0.10049450E+002
 -0.47623825E+000
 -0.27284752E+001
  0.18147164E+001
  0.67029763E+000
 -0.10674822E+001
 -0.12168383E-001
 -0.22601309E+001
 -0.14193089E-001
 -0.16920466E+001
  0.60929708E-002
 -0.19286953E+001
 -0.18539712E-002
 -0.21864031E+001
 -0.22012529E-002
 -0.20882739E+001
  0.84422521E-003
 -0.19858451E+001
  0.54879671E-003
 -0.24566168E+001
 -0.54665826E-002
 -0.66265053E+000
  0.20750192E-001
  0.76470951E-002
 -0.12168383E-001
 -0.00000000E+000
 -0.00000000E+000
 -0.26361473E-001
 -0.00000000E+000
 -0.00000000E+000
 -0.20268502E-001
 -0.00000000E+000
 -0.00000000E+000
 -0.22122473E-001
 -0.00000000E+000
 -0.00000000E+000
 -0.24323726E-001
 -0.00000000E+000
 -0.00000000E+000
 -0.23479501E-001
 -0.00000000E+000
 -0.00000000E+000
 -0.22930704E-001
 -0.00000000E+000
 -0.00000000E+000
 -0.28397287E-001
 -0.00000000E+000
 -0.00000000E+000
 -0.76470951E-002