# vtk DataFile Version 2.0
BldPointCP.BldB
ASCII
 
DATASET POLYDATA
POINTS 9 double
  0.41030377E+001  0.10737455E+002  0.10631772E+003
  0.99538347E+001  0.26331413E+002  0.94550017E+002
  0.14654120E+002  0.38791508E+002  0.82363587E+002
  0.17822799E+002  0.47170971E+002  0.70099110E+002
  0.18832233E+002  0.49839917E+002  0.58089617E+002
  0.17810051E+002  0.47130060E+002  0.46088102E+002
  0.14641467E+002  0.38744724E+002  0.33819898E+002
  0.99408958E+001  0.26305635E+002  0.21603234E+002
  0.40524011E+001  0.10721630E+002  0.98379267E+001
  
POINT_DATA 9
SCALARS Gamma_LL double
LOOKUP_TABLE default
  0.11292674E+003
  0.53623803E+002
  0.23638794E+002
  0.37005578E+002
  0.56792342E+002
  0.48905703E+002
  0.36093337E+002
  0.50794710E+002
  0.57065085E+002
VECTORS Vind_CP double
  0.14527325E-001 -0.78785475E-001 -0.42156269E+000
 -0.47777966E-001 -0.75724278E-001 -0.12606575E+000
 -0.18980247E-001 -0.42459596E-001 -0.23579550E-002
 -0.56266431E-001 -0.20802821E+000 -0.37960113E-001
 -0.12852887E+000 -0.41926481E+000  0.73196515E-002
 -0.87604420E-001 -0.29150737E+000  0.87851540E-001
 -0.42884448E-001 -0.11717743E+000  0.67427764E-001
 -0.58188918E-001 -0.13523316E+000  0.13901789E+000
 -0.74969230E-001 -0.59459269E-001  0.15111717E+000
VECTORS Vtot_CP double
  0.35162843E+002 -0.76921632E+001  0.31147603E+000
  0.63951294E+002 -0.19075067E+002  0.34790026E+000
  0.86636415E+002 -0.28497589E+002 -0.67432878E+000
  0.10217472E+003 -0.33427018E+002 -0.50558269E+000
  0.10729699E+003 -0.34207561E+002  0.11638610E+000
  0.10224787E+003 -0.32475806E+002  0.57241305E+000
  0.86816506E+002 -0.27252868E+002  0.87733519E+000
  0.64401528E+002 -0.18497214E+002  0.48390172E+000
  0.36437652E+002 -0.73603386E+001  0.67489722E-001
VECTORS Vstr_CP double
 -0.17948316E+002  0.76133777E+001 -0.73303872E+000
 -0.46799072E+002  0.18999343E+002 -0.47396601E+000
 -0.69455395E+002  0.28455130E+002  0.67197083E+000
 -0.85030985E+002  0.33218989E+002  0.46762257E+000
 -0.90225522E+002  0.33788296E+002 -0.10906645E+000
 -0.85135476E+002  0.32184299E+002 -0.48456151E+000
 -0.69659390E+002  0.27135690E+002 -0.80990742E+000
 -0.47259717E+002  0.18361981E+002 -0.34488383E+000
 -0.19312621E+002  0.73008793E+001  0.83627447E-001
VECTORS Vwnd_CP double
  0.17200000E+002  0.00000000E+000  0.00000000E+000
  0.17200000E+002  0.00000000E+000  0.00000000E+000
  0.17200000E+002  0.00000000E+000  0.00000000E+000
  0.17200000E+002  0.00000000E+000  0.00000000E+000
  0.17200000E+002  0.00000000E+000  0.00000000E+000
  0.17200000E+002  0.00000000E+000  0.00000000E+000
  0.17200000E+002  0.00000000E+000  0.00000000E+000
  0.17200000E+002  0.00000000E+000  0.00000000E+000
  0.17200000E+002  0.00000000E+000  0.00000000E+000
VECTORS Tangent double
  0.80778117E+000 -0.58948242E+000  0.23946131E-003
  0.93390618E+000 -0.35751771E+000 -0.57428461E-003
  0.93686067E+000 -0.34970284E+000 -0.73875637E-004
  0.93641890E+000 -0.35088406E+000  0.16257472E-003
  0.93470420E+000 -0.35542659E+000 -0.24519982E-004
  0.93544402E+000 -0.35347481E+000 -0.17996871E-003
  0.93620033E+000 -0.35146683E+000 -0.60291330E-004
  0.93526402E+000 -0.35395085E+000  0.86032958E-004
  0.93507467E+000 -0.35444474E+000  0.20702915E-002
VECTORS Normal double
  0.31139264E+000  0.42705327E+000  0.84891703E+000
  0.22947600E+000  0.59820288E+000  0.76778518E+000
  0.24782162E+000  0.66376982E+000  0.70568695E+000
  0.31532615E+000  0.84172707E+000  0.43825217E+000
  0.35542557E+000  0.93470167E+000 -0.23338884E-002
  0.31726185E+000  0.83983347E+000 -0.44048231E+000
  0.24945617E+000  0.66459590E+000 -0.70433224E+000
  0.22738878E+000  0.60065573E+000 -0.76649008E+000
  0.18325540E+000  0.47843719E+000 -0.85878711E+000
VECTORS Orth double
  0.50052393E+000  0.68566463E+000 -0.52852608E+000
  0.27415326E+000  0.71717111E+000 -0.64070710E+000
  0.24673169E+000  0.66114866E+000 -0.70852376E+000
  0.15391254E+000  0.41033635E+000 -0.89885205E+000
 -0.85244488E-003 -0.21727803E-002 -0.99999728E+000
 -0.15585054E+000 -0.41198944E+000 -0.89776127E+000
 -0.24758949E+000 -0.65938104E+000 -0.70987047E+000
 -0.27124814E+000 -0.71689015E+000 -0.64225614E+000
 -0.30340207E+000 -0.80340947E+000 -0.51232842E+000
