# vtk DataFile Version 2.0
BldPointCP.BldB
ASCII
 
DATASET POLYDATA
POINTS 9 double
  0.53698862E+001  0.10126097E+002  0.10635479E+003
  0.13161901E+002  0.24820987E+002  0.94569329E+002
  0.19378595E+002  0.36544397E+002  0.82327076E+002
  0.23588355E+002  0.44483265E+002  0.70073506E+002
  0.24949421E+002  0.47050027E+002  0.58091577E+002
  0.23588306E+002  0.44483148E+002  0.46109626E+002
  0.19378484E+002  0.36544267E+002  0.33856016E+002
  0.13161771E+002  0.24820812E+002  0.21613622E+002
  0.53694882E+001  0.10125902E+002  0.98280424E+001
  
POINT_DATA 9
SCALARS Gamma_LL double
LOOKUP_TABLE default
  0.37828913E-001
  0.24458689E-001
  0.19210240E-001
  0.20399352E-001
  0.21936031E-001
  0.21245590E-001
  0.20926311E-001
  0.25812927E-001
  0.24788698E-001
VECTORS Vind_CP double
 -0.40109648E-004 -0.17261792E-004 -0.66668159E-004
 -0.20090277E-004 -0.32214538E-004 -0.42251506E-004
 -0.14549890E-004 -0.27406879E-004 -0.20333454E-004
 -0.25277478E-004 -0.56345390E-004 -0.19979733E-004
 -0.35408917E-004 -0.81476774E-004 -0.19291599E-006
 -0.27833215E-004 -0.62046013E-004  0.22746488E-004
 -0.18968025E-004 -0.38298089E-004  0.29167080E-004
 -0.26280808E-004 -0.47225669E-004  0.52093489E-004
 -0.36254878E-004 -0.17045678E-004  0.38541152E-004
VECTORS Vtot_CP double
  0.35347244E+002 -0.97376518E+001  0.96388992E-001
  0.61793549E+002 -0.23994070E+002 -0.95449346E-002
  0.82795054E+002 -0.35423660E+002 -0.15846226E+000
  0.97049891E+002 -0.43065463E+002 -0.11132356E+000
  0.10166823E+003 -0.45522008E+002 -0.23967919E-001
  0.97063464E+002 -0.43051705E+002  0.64507678E-001
  0.82821590E+002 -0.35392831E+002  0.11731125E+000
  0.61820948E+002 -0.23952666E+002 -0.41008910E-002
  0.35431943E+002 -0.97017578E+001 -0.85370295E-001
VECTORS Vstr_CP double
 -0.18147284E+002  0.97376346E+001 -0.96455660E-001
 -0.44593569E+002  0.23994038E+002  0.95026831E-002
 -0.65595069E+002  0.35423632E+002  0.15844193E+000
 -0.79849916E+002  0.43065406E+002  0.11130358E+000
 -0.84468268E+002  0.45521926E+002  0.23967726E-001
 -0.79863491E+002  0.43051643E+002 -0.64484931E-001
 -0.65621609E+002  0.35392793E+002 -0.11728208E+000
 -0.44620974E+002  0.23952619E+002  0.41529845E-002
 -0.18231979E+002  0.97017407E+001  0.85408836E-001
VECTORS Vwnd_CP double
  0.17200000E+002  0.00000000E+000  0.00000000E+000
  0.17200000E+002  0.00000000E+000  0.00000000E+000
  0.17200000E+002  0.00000000E+000  0.00000000E+000
  0.17200000E+002  0.00000000E+000  0.00000000E+000
  0.17200000E+002  0.00000000E+000  0.00000000E+000
  0.17200000E+002  0.00000000E+000  0.00000000E+000
  0.17200000E+002  0.00000000E+000  0.00000000E+000
  0.17200000E+002  0.00000000E+000  0.00000000E+000
  0.17200000E+002  0.00000000E+000  0.00000000E+000
VECTORS Tangent double
  0.73030543E+000 -0.68312076E+000  0.23355910E-004
  0.88344468E+000 -0.46853548E+000  0.37298265E-004
  0.88348116E+000 -0.46846669E+000  0.35626954E-004
  0.88348997E+000 -0.46845008E+000  0.13998795E-004
  0.88350488E+000 -0.46842195E+000 -0.87088282E-005
  0.88352648E+000 -0.46838121E+000 -0.33591010E-004
  0.88349526E+000 -0.46844010E+000 -0.15497287E-004
  0.88347039E+000 -0.46848700E+000  0.25415948E-005
  0.88347477E+000 -0.46847873E+000  0.32983992E-004
VECTORS Normal double
  0.35877475E+000  0.38358522E+000  0.85096595E+000
  0.30227770E+000  0.57001900E+000  0.76400690E+000
  0.33262684E+000  0.62735438E+000  0.70412064E+000
  0.41969816E+000  0.79155783E+000  0.44417301E+000
  0.46842195E+000  0.88350488E+000 -0.97225158E-005
  0.41962890E+000  0.79159486E+000 -0.44417245E+000
  0.33261994E+000  0.62735674E+000 -0.70412179E+000
  0.30227675E+000  0.57002780E+000 -0.76400070E+000
  0.23979303E+000  0.45215020E+000 -0.85910389E+000
VECTORS Orth double
  0.58132147E+000  0.62145668E+000 -0.52522086E+000
  0.35798560E+000  0.67494655E+000 -0.64520808E+000
  0.32987942E+000  0.62206546E+000 -0.71008037E+000
  0.20808396E+000  0.39241653E+000 -0.89594103E+000
 -0.12248532E-004 -0.45104839E-005 -0.10000000E+001
 -0.20806862E+000 -0.39242402E+000 -0.89594131E+000
 -0.32984860E+000 -0.62208311E+000 -0.71007922E+000
 -0.35792295E+000 -0.67497277E+000 -0.64521541E+000
 -0.40245699E+000 -0.75900452E+000 -0.51180123E+000
