# vtk DataFile Version 2.0
BldPointCP.BldC
ASCII
 
DATASET POLYDATA
POINTS 9 double
  0.62608126E+001 -0.96020346E+001  0.10635326E+003
  0.15342766E+002 -0.23539529E+002  0.94569168E+002
  0.22590773E+002 -0.34659043E+002  0.82329367E+002
  0.27498505E+002 -0.42187399E+002  0.70075345E+002
  0.29084946E+002 -0.44621090E+002  0.58092113E+002
  0.27498344E+002 -0.42186840E+002  0.46109157E+002
  0.22590521E+002 -0.34657404E+002  0.33855239E+002
  0.15342473E+002 -0.23538005E+002  0.21614310E+002
  0.62586858E+001 -0.96019808E+001  0.98293134E+001
  
POINT_DATA 9
SCALARS Gamma_LL double
LOOKUP_TABLE default
  0.10666897E+001
  0.23046604E+001
  0.17805758E+001
  0.19417304E+001
  0.21331395E+001
  0.20593473E+001
  0.20114431E+001
  0.24807580E+001
  0.66769319E+000
VECTORS Vind_CP double
 -0.28673168E-002 -0.84077233E-003 -0.35213553E-002
 -0.17502658E-002  0.26001005E-002 -0.42837838E-002
 -0.18744230E-002  0.22554266E-002 -0.22444260E-002
 -0.34186968E-002  0.42959755E-002 -0.18873367E-002
 -0.49047255E-002  0.63959931E-002  0.12198209E-004
 -0.37993949E-002  0.48386118E-002  0.21887067E-002
 -0.24411605E-002  0.31228130E-002  0.30153134E-002
 -0.26470662E-002  0.36108678E-002  0.51179132E-002
 -0.21905089E-002 -0.22467766E-002  0.11063445E-002
VECTORS Vtot_CP double
 -0.39746183E+000 -0.11276025E+002  0.22144518E+000
 -0.25539262E+002 -0.27195800E+002  0.84600302E-002
 -0.45853111E+002 -0.39862202E+002 -0.35268213E+000
 -0.59448265E+002 -0.48723373E+002 -0.26228455E+000
 -0.63789281E+002 -0.51678925E+002 -0.68784228E-001
 -0.59406775E+002 -0.48831903E+002  0.10945805E+000
 -0.45793517E+002 -0.40069032E+002  0.18928676E+000
 -0.25477733E+002 -0.27361329E+002 -0.63403930E-001
 -0.12625603E+000 -0.11272388E+002 -0.18260732E+000
VECTORS Vstr_CP double
  0.17594595E+002  0.11275184E+002 -0.22496653E+000
  0.42737511E+002  0.27198400E+002 -0.12743814E-001
  0.63051236E+002  0.39864457E+002  0.35043771E+000
  0.76644846E+002  0.48727669E+002  0.26039722E+000
  0.80984376E+002  0.51685321E+002  0.68796427E-001
  0.76602975E+002  0.48836742E+002 -0.10726934E+000
  0.62991076E+002  0.40072155E+002 -0.18627145E+000
  0.42675086E+002  0.27364940E+002  0.68521843E-001
  0.17324066E+002  0.11270141E+002  0.18371366E+000
VECTORS Vwnd_CP double
  0.17200000E+002  0.00000000E+000  0.00000000E+000
  0.17200000E+002  0.00000000E+000  0.00000000E+000
  0.17200000E+002  0.00000000E+000  0.00000000E+000
  0.17200000E+002  0.00000000E+000  0.00000000E+000
  0.17200000E+002  0.00000000E+000  0.00000000E+000
  0.17200000E+002  0.00000000E+000  0.00000000E+000
  0.17200000E+002  0.00000000E+000  0.00000000E+000
  0.17200000E+002  0.00000000E+000  0.00000000E+000
  0.17200000E+002  0.00000000E+000  0.00000000E+000
VECTORS Tangent double
 -0.66588512E+000 -0.74605429E+000  0.98173743E-004
 -0.83769447E+000 -0.54613912E+000  0.17381544E-003
 -0.83773669E+000 -0.54607438E+000  0.12628830E-003
 -0.83768239E+000 -0.54615768E+000  0.52083956E-004
 -0.83757370E+000 -0.54632435E+000 -0.36842856E-004
 -0.83767403E+000 -0.54617049E+000 -0.11497105E-003
 -0.83774467E+000 -0.54606214E+000 -0.53714200E-004
 -0.83771062E+000 -0.54611439E+000 -0.60713007E-006
 -0.83772044E+000 -0.54609930E+000 -0.15032702E-003
VECTORS Normal double
  0.39198768E+000 -0.34975368E+000  0.85089249E+000
  0.35233686E+000 -0.54018800E+000  0.76423535E+000
  0.38779114E+000 -0.59475036E+000  0.70419460E+000
  0.48936104E+000 -0.75052684E+000  0.44411174E+000
  0.54632435E+000 -0.83757370E+000 -0.81479077E-005
  0.48937620E+000 -0.75047385E+000 -0.44418458E+000
  0.38773100E+000 -0.59477070E+000 -0.70421054E+000
  0.35225889E+000 -0.54034568E+000 -0.76415981E+000
  0.27963717E+000 -0.42872904E+000 -0.85906604E+000
VECTORS Orth double
  0.63477765E+000 -0.56663512E+000 -0.52533986E+000
  0.41728493E+000 -0.64025697E+000 -0.64493744E+000
  0.38446752E+000 -0.58997863E+000 -0.71000701E+000
  0.24251595E+000 -0.37205007E+000 -0.89597141E+000
  0.26407207E-004  0.26952623E-004 -0.10000000E+001
 -0.24251423E+000  0.37213815E+000 -0.89593529E+000
 -0.38451077E+000  0.58996946E+000 -0.70999120E+000
 -0.41731834E+000  0.64014500E+000 -0.64502696E+000
 -0.46907091E+000  0.71969922E+000 -0.51186474E+000
