# vtk DataFile Version 2.0
BldPointCP.BldC
ASCII
 
DATASET POLYDATA
POINTS 9 double
  0.64366867E+001 -0.94875988E+001  0.10635026E+003
  0.15767198E+002 -0.23263749E+002  0.94568335E+002
  0.23217385E+002 -0.34255062E+002  0.82333194E+002
  0.28260719E+002 -0.41692976E+002  0.70078306E+002
  0.29889832E+002 -0.44095677E+002  0.58092790E+002
  0.28259782E+002 -0.41690498E+002  0.46108074E+002
  0.23216370E+002 -0.34250244E+002  0.33853439E+002
  0.15766196E+002 -0.23259943E+002  0.21615116E+002
  0.64308686E+001 -0.94876312E+001  0.98312175E+001
  
POINT_DATA 9
SCALARS Gamma_LL double
LOOKUP_TABLE default
  0.54940278E+001
  0.11602036E+002
  0.87386187E+001
  0.99311391E+001
  0.11232413E+002
  0.10735934E+002
  0.10223402E+002
  0.12589645E+002
  0.34009931E+001
VECTORS Vind_CP double
 -0.14761090E-001 -0.74818114E-002 -0.21622313E-001
 -0.89139484E-002  0.12789562E-001 -0.21844990E-001
 -0.96441497E-002  0.11049426E-001 -0.10844847E-001
 -0.18923820E-001  0.22675986E-001 -0.98706110E-002
 -0.28153199E-001  0.35212918E-001  0.12185703E-003
 -0.21478409E-001  0.26174990E-001  0.11950889E-001
 -0.13134859E-001  0.16121269E-001  0.15584061E-001
 -0.13937609E-001  0.18286667E-001  0.26252836E-001
 -0.10494276E-001 -0.13101253E-001  0.78257909E-002
VECTORS Vtot_CP double
 -0.41332859E+000 -0.11642905E+002  0.31562582E+000
 -0.25155985E+002 -0.27847419E+002  0.61357077E-001
 -0.45243111E+002 -0.40809852E+002 -0.47715232E+000
 -0.58581272E+002 -0.50174870E+002 -0.34788375E+000
 -0.62767291E+002 -0.53439868E+002 -0.65952601E-001
 -0.58476021E+002 -0.50440076E+002  0.16679908E+000
 -0.45094757E+002 -0.41261275E+002  0.27138843E+000
 -0.25010310E+002 -0.28148123E+002 -0.44757230E-001
  0.65835564E-001 -0.11619015E+002 -0.19516504E+000
VECTORS Vstr_CP double
  0.17598568E+002  0.11635424E+002 -0.33724814E+000
  0.42347071E+002  0.27860208E+002 -0.83202066E-001
  0.62433467E+002  0.40820902E+002  0.46630748E+000
  0.75762348E+002  0.50197546E+002  0.33801314E+000
  0.79939138E+002  0.53475081E+002  0.66074458E-001
  0.75654542E+002  0.50466251E+002 -0.15484819E+000
  0.62281622E+002  0.41277396E+002 -0.25580437E+000
  0.42196372E+002  0.28166410E+002  0.71010065E-001
  0.17123670E+002  0.11605914E+002  0.20299083E+000
VECTORS Vwnd_CP double
  0.17200000E+002  0.00000000E+000  0.00000000E+000
  0.17200000E+002  0.00000000E+000  0.00000000E+000
  0.17200000E+002  0.00000000E+000  0.00000000E+000
  0.17200000E+002  0.00000000E+000  0.00000000E+000
  0.17200000E+002  0.00000000E+000  0.00000000E+000
  0.17200000E+002  0.00000000E+000  0.00000000E+000
  0.17200000E+002  0.00000000E+000  0.00000000E+000
  0.17200000E+002  0.00000000E+000  0.00000000E+000
  0.17200000E+002  0.00000000E+000  0.00000000E+000
VECTORS Tangent double
 -0.65221750E+000 -0.75803186E+000  0.18228477E-003
 -0.82766790E+000 -0.56121810E+000  0.32397478E-003
 -0.82789108E+000 -0.56088886E+000  0.19557586E-003
 -0.82770006E+000 -0.56117074E+000  0.66985442E-004
 -0.82740947E+000 -0.56159911E+000 -0.67406326E-004
 -0.82767222E+000 -0.56121178E+000 -0.19922799E-003
 -0.82784851E+000 -0.56095172E+000 -0.89607136E-004
 -0.82767692E+000 -0.56120488E+000  0.25014085E-005
 -0.82767334E+000 -0.56121004E+000 -0.35923770E-003
VECTORS Normal double
  0.39850817E+000 -0.34267547E+000  0.85074365E+000
  0.36190436E+000 -0.53328449E+000  0.76461290E+000
  0.39827752E+000 -0.58762561E+000  0.70432319E+000
  0.50289469E+000 -0.74169268E+000  0.44383432E+000
  0.56159911E+000 -0.82740947E+000 -0.10594930E-003
  0.50292290E+000 -0.74155045E+000 -0.44403995E+000
  0.39826121E+000 -0.58763852E+000 -0.70432164E+000
  0.36182481E+000 -0.53363035E+000 -0.76440922E+000
  0.28757596E+000 -0.42356757E+000 -0.85900558E+000
VECTORS Orth double
  0.64482833E+000 -0.55494254E+000 -0.52558083E+000
  0.42894182E+000 -0.63296279E+000 -0.64448973E+000
  0.39493211E+000 -0.58318078E+000 -0.70987943E+000
  0.24901715E+000 -0.36739538E+000 -0.89610886E+000
 -0.37283995E-005  0.12551879E-003 -0.99999999E+000
 -0.24905271E+000  0.36761973E+000 -0.89600696E+000
 -0.39503778E+000  0.58310731E+000 -0.70988098E+000
 -0.42899152E+000  0.63268296E+000 -0.64473137E+000
 -0.48193039E+000  0.71107932E+000 -0.51196610E+000
