# vtk DataFile Version 2.0
BldPointCP.BldA
ASCII
 
DATASET POLYDATA
POINTS 9 double
 -0.10873339E+002 -0.30492395E+001  0.10651014E+003
 -0.26998793E+002 -0.75818105E+001  0.94894634E+002
 -0.39706684E+002 -0.11221658E+002  0.82620810E+002
 -0.48217709E+002 -0.13701358E+002  0.70284528E+002
 -0.50980876E+002 -0.14520753E+002  0.58287171E+002
 -0.48225247E+002 -0.13727062E+002  0.46293269E+002
 -0.39704164E+002 -0.11234368E+002  0.33955449E+002
 -0.27041930E+002 -0.75855358E+001  0.21623086E+002
 -0.11039266E+002 -0.30846983E+001  0.98267680E+001
  
POINT_DATA 9
SCALARS Gamma_LL double
LOOKUP_TABLE default
 -0.42537735E+001
 -0.15882816E+003
 -0.14302659E+003
 -0.11337245E+003
 -0.98903979E+002
 -0.91358857E+002
 -0.10612459E+003
 -0.14230449E+003
 -0.62668862E+002
VECTORS Vind_CP double
  0.10840128E+000 -0.27864233E+000  0.11228212E+000
 -0.57193463E+000  0.19639622E-001  0.55834646E+000
 -0.82257442E+000 -0.35602805E-001  0.57590292E+000
 -0.10445493E+001 -0.11528143E+000  0.33067294E+000
 -0.10443391E+001 -0.17222976E+000  0.22247801E-001
 -0.88734096E+000 -0.11113522E+000 -0.22119996E+000
 -0.65228503E+000 -0.39428718E-001 -0.41801854E+000
 -0.56853250E+000 -0.24675009E-001 -0.53209622E+000
 -0.19496670E+000 -0.47196716E-002 -0.73040711E-001
VECTORS Vtot_CP double
  0.95122623E+001  0.19454563E+002 -0.15346918E+001
  0.18186499E+001  0.49886448E+002 -0.32948282E+001
 -0.56211475E+001  0.73937562E+002 -0.34863798E+001
 -0.12163208E+002  0.90251139E+002 -0.27618373E+001
 -0.14447970E+002  0.95718161E+002 -0.26700054E+001
 -0.12210136E+002  0.90331953E+002 -0.26147477E+001
 -0.58384029E+001  0.73768121E+002 -0.18482547E+001
  0.23152708E+001  0.49715265E+002 -0.91178293E+000
  0.11374687E+002  0.20149069E+002 -0.88879256E-001
VECTORS Vstr_CP double
  0.77961390E+001 -0.19733205E+002  0.16469739E+001
  0.14809415E+002 -0.49866808E+002  0.38531747E+001
  0.21998573E+002 -0.73973164E+002  0.40622827E+001
  0.28318658E+002 -0.90366420E+002  0.30925102E+001
  0.30603631E+002 -0.95890391E+002  0.26922532E+001
  0.28522795E+002 -0.90443089E+002  0.23935477E+001
  0.22386118E+002 -0.73807550E+002  0.14302362E+001
  0.14316197E+002 -0.49739940E+002  0.37968671E+000
  0.56303460E+001 -0.20153789E+002  0.15838546E-001
VECTORS Vwnd_CP double
  0.17200000E+002  0.00000000E+000  0.00000000E+000
  0.17200000E+002  0.00000000E+000  0.00000000E+000
  0.17200000E+002  0.00000000E+000  0.00000000E+000
  0.17200000E+002  0.00000000E+000  0.00000000E+000
  0.17200000E+002  0.00000000E+000  0.00000000E+000
  0.17200000E+002  0.00000000E+000  0.00000000E+000
  0.17200000E+002  0.00000000E+000  0.00000000E+000
  0.17200000E+002  0.00000000E+000  0.00000000E+000
  0.17200000E+002  0.00000000E+000  0.00000000E+000
VECTORS Tangent double
 -0.87675146E+000  0.48083214E+000 -0.10359694E-001
 -0.27450774E+000  0.96158479E+000 -0.43477433E-003
 -0.27144526E+000  0.96245211E+000 -0.18456340E-002
 -0.25938648E+000  0.96576685E+000 -0.36123577E-002
 -0.25432254E+000  0.96711946E+000 -0.12215047E-004
 -0.25494668E+000  0.96695375E+000  0.16248875E-002
 -0.25846961E+000  0.96601871E+000  0.11498765E-002
 -0.26258630E+000  0.96490797E+000  0.10262249E-002
 -0.26528909E+000  0.96416866E+000  0.69766012E-003
VECTORS Normal double
 -0.31094306E+000 -0.55027896E+000  0.77492418E+000
 -0.61570494E+000 -0.17542060E+000  0.76820247E+000
 -0.69264629E+000 -0.19401839E+000  0.69469272E+000
 -0.86801536E+000 -0.23148924E+000  0.43927447E+000
 -0.96711852E+000 -0.25432228E+000  0.13957423E-002
 -0.86857565E+000 -0.22826922E+000 -0.43985168E+000
 -0.69487938E+000 -0.18509596E+000 -0.69489721E+000
 -0.62397243E+000 -0.16899399E+000 -0.76295441E+000
 -0.49352151E+000 -0.13516978E+000 -0.85916567E+000
VECTORS Orth double
 -0.36690773E+000 -0.68263718E+000 -0.63196930E+000
 -0.73861555E+000 -0.21114522E+000 -0.64020682E+000
 -0.66825039E+000 -0.18984942E+000 -0.71930426E+000
 -0.42340050E+000 -0.11707744E+000 -0.89834564E+000
 -0.13467430E-002 -0.36678213E-003 -0.99999903E+000
  0.42494532E+000  0.11355007E+000 -0.89806896E+000
  0.67107086E+000  0.18040883E+000 -0.71910816E+000
  0.73600736E+000  0.20098171E+000 -0.64645148E+000
  0.82828631E+000  0.22827159E+000 -0.51169704E+000
