# vtk DataFile Version 2.0

ASCII
 
DATASET POLYDATA
POINTS 110 double
  0.90957925E-001  0.18886225E-001  0.11318144E+003
 -0.20249914E+002 -0.33271911E+001  0.10104507E+003
 -0.34569715E+002 -0.57005678E+001  0.88821063E+002
 -0.46476097E+002 -0.76977090E+001  0.76525801E+002
 -0.52444912E+002 -0.87053495E+001  0.64276354E+002
 -0.52449760E+002 -0.87123077E+001  0.52034180E+002
 -0.46481843E+002 -0.77150804E+001  0.39786187E+002
 -0.34574331E+002 -0.57050100E+001  0.27482787E+002
 -0.20279848E+002 -0.33344280E+001  0.15240319E+002
  0.18933880E-003  0.51312656E-004  0.30001531E+001
 -0.43492876E+001 -0.71166450E+000  0.11315875E+003
 -0.20976908E+002  0.10247549E+001  0.10104581E+003
 -0.35089141E+002 -0.26475730E+001  0.88825316E+002
 -0.46876198E+002 -0.52750561E+001  0.76524891E+002
 -0.52803835E+002 -0.64783114E+001  0.64275116E+002
 -0.52814691E+002 -0.64418120E+001  0.52034375E+002
 -0.46890452E+002 -0.51470959E+001  0.39782887E+002
 -0.35118236E+002 -0.23228468E+001  0.27483963E+002
 -0.21000595E+002  0.11074773E+001  0.15241175E+002
 -0.72662245E+000  0.44409683E+001  0.30011289E+001
 -0.41900890E+001 -0.63565485E+000  0.11315444E+003
 -0.20787061E+002  0.14034592E+001  0.10106125E+003
 -0.34968188E+002 -0.20138111E+001  0.88833940E+002
 -0.46805069E+002 -0.44289099E+001  0.76532657E+002
 -0.52758872E+002 -0.55253227E+001  0.64278679E+002
 -0.52768787E+002 -0.54887002E+001  0.52031149E+002
 -0.46816608E+002 -0.43009031E+001  0.39775403E+002
 -0.34990999E+002 -0.16887888E+001  0.27475667E+002
 -0.20810165E+002  0.14870036E+001  0.15237334E+002
 -0.47699851E+000  0.44521107E+001  0.30038069E+001
 -0.40507999E+001 -0.56026543E+000  0.11315578E+003
 -0.20594498E+002  0.17842223E+001  0.10104661E+003
 -0.34831813E+002 -0.13686896E+001  0.88808384E+002
 -0.46732743E+002 -0.35607419E+001  0.76520139E+002
 -0.52715594E+002 -0.45431358E+001  0.64265161E+002
 -0.52723406E+002 -0.45046894E+001  0.52013242E+002
 -0.46741062E+002 -0.34298249E+001  0.39757424E+002
 -0.34851936E+002 -0.10440070E+001  0.27470256E+002
 -0.20611999E+002  0.18688532E+001  0.15235511E+002
 -0.22699600E+000  0.44618122E+001  0.30060373E+001
 -0.39076674E+001 -0.48373073E+000  0.11315764E+003
 -0.20400388E+002  0.21632005E+001  0.10103767E+003
 -0.34680209E+002 -0.72529232E+000  0.88783182E+002
 -0.46636742E+002 -0.26939704E+001  0.76506416E+002
 -0.52642448E+002 -0.35626148E+001  0.64252320E+002
 -0.52648451E+002 -0.35225273E+001  0.51998663E+002
 -0.46642191E+002 -0.25601747E+001  0.39744488E+002
 -0.34697270E+002 -0.40040983E+000  0.27468685E+002
 -0.20412595E+002  0.22488910E+001  0.15226249E+002
  0.23628209E-001  0.44702250E+001  0.30080169E+001
 -0.37604467E+001 -0.40606981E+000  0.11315995E+003
 -0.20189249E+002  0.25413613E+001  0.10101699E+003
 -0.34513565E+002 -0.83955179E-001  0.88758736E+002
 -0.46516274E+002 -0.18294714E+001  0.76491301E+002
 -0.52538320E+002 -0.25850459E+001  0.64239760E+002
 -0.52542878E+002 -0.25435205E+001  0.51988056E+002
 -0.46519527E+002 -0.16929087E+001  0.39736886E+002
 -0.34527394E+002  0.24151713E+000  0.27470673E+002
 -0.20197172E+002  0.26280375E+001  0.15227118E+002
  0.27493031E+000  0.44774463E+001  0.30095715E+001
 -0.36088865E+001 -0.32736305E+000  0.11316251E+003
 -0.19969755E+002  0.29180980E+001  0.10099429E+003
 -0.34333026E+002  0.55531192E+000  0.88736490E+002
 -0.46373102E+002 -0.96771629E+000  0.76476066E+002
 -0.52405083E+002 -0.16112890E+001  0.64227997E+002
 -0.52408451E+002 -0.15685784E+001  0.51981235E+002
 -0.46374768E+002 -0.82861187E+000  0.39733829E+002
 -0.34343426E+002  0.88153445E+000  0.27475134E+002
 -0.19973821E+002  0.30055078E+001  0.15228768E+002
  0.52721020E+000  0.44837267E+001  0.30100876E+001
 -0.34527921E+001 -0.24775759E+000  0.11316487E+003
 -0.19741305E+002  0.32931368E+001  0.10097486E+003
 -0.34139378E+002  0.11924080E+001  0.88717545E+002
 -0.46209421E+002 -0.10900994E+000  0.76462085E+002
 -0.52248672E+002 -0.64133900E+000  0.64217853E+002
 -0.52251107E+002 -0.59777667E+000  0.51977658E+002
 -0.46210200E+002  0.32325897E-001  0.39734143E+002
 -0.34146640E+002  0.15194651E+001  0.27480832E+002
 -0.19743103E+002  0.33812752E+001  0.15230608E+002
  0.77971669E+000  0.44885760E+001  0.30109160E+001
 -0.32918889E+001 -0.16750489E+000  0.11316634E+003
 -0.19504783E+002  0.36667041E+001  0.10095929E+003
 -0.33932829E+002  0.18271532E+001  0.88702658E+002
 -0.46027408E+002  0.74646212E+000  0.76451036E+002
 -0.52072800E+002  0.32476105E+000  0.64210434E+002
 -0.52074604E+002  0.36875478E+000  0.51976567E+002
 -0.46028311E+002  0.88967733E+000  0.39736704E+002
 -0.33938207E+002  0.21550817E+001  0.27486668E+002
 -0.19505168E+002  0.37547316E+001  0.15233099E+002
  0.10324245E+001  0.44920578E+001  0.30115531E+001
 -0.31258695E+001 -0.86791152E-001  0.11316675E+003
 -0.19260865E+002  0.40382394E+001  0.10094519E+003
 -0.33717863E+002  0.24598234E+001  0.88695649E+002
 -0.45828443E+002  0.15984826E+001  0.76443273E+002
 -0.51879823E+002  0.12869425E+001  0.64206099E+002
 -0.51881236E+002  0.13310112E+001  0.51977343E+002
 -0.45829660E+002  0.17430129E+001  0.39740748E+002
 -0.33729106E+002  0.27892113E+001  0.27480449E+002
 -0.19260649E+002  0.41268652E+001  0.15235021E+002
  0.12851336E+001  0.44941183E+001  0.30121932E+001
 -0.29556664E+001 -0.58497340E-002  0.11316656E+003
 -0.19011035E+002  0.44087921E+001  0.10093283E+003
 -0.33503962E+002  0.30922784E+001  0.88704970E+002
 -0.45614932E+002  0.24479965E+001  0.76438773E+002
 -0.51671628E+002  0.22461399E+001  0.64204257E+002
 -0.51672430E+002  0.22901804E+001  0.51978439E+002
 -0.45614703E+002  0.25929585E+001  0.39744490E+002
 -0.33502440E+002  0.34208387E+001  0.27479029E+002
 -0.19009037E+002  0.44969788E+001  0.15240789E+002
  0.15377487E+001  0.44947044E+001  0.30131099E+001
  
POLYGONS 90 450
      4      0      1     11     10
      4      1      2     12     11
      4      2      3     13     12
      4      3      4     14     13
      4      4      5     15     14
      4      5      6     16     15
      4      6      7     17     16
      4      7      8     18     17
      4      8      9     19     18
      4     10     11     21     20
      4     11     12     22     21
      4     12     13     23     22
      4     13     14     24     23
      4     14     15     25     24
      4     15     16     26     25
      4     16     17     27     26
      4     17     18     28     27
      4     18     19     29     28
      4     20     21     31     30
      4     21     22     32     31
      4     22     23     33     32
      4     23     24     34     33
      4     24     25     35     34
      4     25     26     36     35
      4     26     27     37     36
      4     27     28     38     37
      4     28     29     39     38
      4     30     31     41     40
      4     31     32     42     41
      4     32     33     43     42
      4     33     34     44     43
      4     34     35     45     44
      4     35     36     46     45
      4     36     37     47     46
      4     37     38     48     47
      4     38     39     49     48
      4     40     41     51     50
      4     41     42     52     51
      4     42     43     53     52
      4     43     44     54     53
      4     44     45     55     54
      4     45     46     56     55
      4     46     47     57     56
      4     47     48     58     57
      4     48     49     59     58
      4     50     51     61     60
      4     51     52     62     61
      4     52     53     63     62
      4     53     54     64     63
      4     54     55     65     64
      4     55     56     66     65
      4     56     57     67     66
      4     57     58     68     67
      4     58     59     69     68
      4     60     61     71     70
      4     61     62     72     71
      4     62     63     73     72
      4     63     64     74     73
      4     64     65     75     74
      4     65     66     76     75
      4     66     67     77     76
      4     67     68     78     77
      4     68     69     79     78
      4     70     71     81     80
      4     71     72     82     81
      4     72     73     83     82
      4     73     74     84     83
      4     74     75     85     84
      4     75     76     86     85
      4     76     77     87     86
      4     77     78     88     87
      4     78     79     89     88
      4     80     81     91     90
      4     81     82     92     91
      4     82     83     93     92
      4     83     84     94     93
      4     84     85     95     94
      4     85     86     96     95
      4     86     87     97     96
      4     87     88     98     97
      4     88     89     99     98
      4     90     91    101    100
      4     91     92    102    101
      4     92     93    103    102
      4     93     94    104    103
      4     94     95    105    104
      4     95     96    106    105
      4     96     97    107    106
      4     97     98    108    107
      4     98     99    109    108
  
CELL_DATA 90
SCALARS Gamma double
LOOKUP_TABLE default
 -0.48893020E+001
 -0.15591898E+003
 -0.13704391E+003
 -0.12410888E+003
 -0.12185218E+003
 -0.11659652E+003
 -0.12280312E+003
 -0.14944531E+003
 -0.73346215E+002
 -0.48893020E+001
 -0.15591898E+003
 -0.13704391E+003
 -0.12410888E+003
 -0.12185218E+003
 -0.11659652E+003
 -0.12280312E+003
 -0.14944531E+003
 -0.73346215E+002
 -0.46587266E+001
 -0.13835549E+003
 -0.12171970E+003
 -0.11050393E+003
 -0.10856606E+003
 -0.10380919E+003
 -0.10921629E+003
 -0.13273300E+003
 -0.66919081E+002
 -0.38266154E+001
 -0.11048758E+003
 -0.96801330E+002
 -0.90032760E+002
 -0.89688879E+002
 -0.85493586E+002
 -0.89374969E+002
 -0.10715760E+003
 -0.54436325E+002
 -0.28342566E+001
 -0.79388323E+002
 -0.69385444E+002
 -0.66057483E+002
 -0.66650169E+002
 -0.63428619E+002
 -0.65857825E+002
 -0.77955958E+002
 -0.39714610E+002
 -0.17915563E+001
 -0.48619196E+002
 -0.42402214E+002
 -0.41280658E+002
 -0.42145739E+002
 -0.40220134E+002
 -0.41313394E+002
 -0.48317845E+002
 -0.24714688E+002
 -0.81856091E+000
 -0.21541708E+002
 -0.18744617E+002
 -0.18631326E+002
 -0.19216129E+002
 -0.18418026E+002
 -0.18723285E+002
 -0.21655029E+002
 -0.11135103E+002
 -0.16983547E+000
 -0.43158211E+001
 -0.37588562E+001
 -0.38076947E+001
 -0.39630860E+001
 -0.38217750E+001
 -0.38456670E+001
 -0.43977668E+001
 -0.22764939E+001
 -0.20358333E-002
 -0.50129804E-001
 -0.43769850E-001
 -0.45116199E-001
 -0.47341231E-001
 -0.45934438E-001
 -0.45782683E-001
 -0.51804677E-001
 -0.27059359E-001
 -0.00000000E+000
 -0.00000000E+000
 -0.00000000E+000
 -0.00000000E+000
 -0.00000000E+000
 -0.00000000E+000
 -0.00000000E+000
 -0.00000000E+000
 -0.00000000E+000
POINT_DATA 110
VECTORS Uconv double
  0.00000000E+000  0.00000000E+000  0.00000000E+000
  0.00000000E+000  0.00000000E+000  0.00000000E+000
  0.00000000E+000  0.00000000E+000  0.00000000E+000
  0.00000000E+000  0.00000000E+000  0.00000000E+000
  0.00000000E+000  0.00000000E+000  0.00000000E+000
  0.00000000E+000  0.00000000E+000  0.00000000E+000
  0.00000000E+000  0.00000000E+000  0.00000000E+000
  0.00000000E+000  0.00000000E+000  0.00000000E+000
  0.00000000E+000  0.00000000E+000  0.00000000E+000
  0.00000000E+000  0.00000000E+000  0.00000000E+000
  0.00000000E+000  0.00000000E+000  0.00000000E+000
  0.00000000E+000  0.00000000E+000  0.00000000E+000
  0.00000000E+000  0.00000000E+000  0.00000000E+000
  0.00000000E+000  0.00000000E+000  0.00000000E+000
  0.00000000E+000  0.00000000E+000  0.00000000E+000
  0.00000000E+000  0.00000000E+000  0.00000000E+000
  0.00000000E+000  0.00000000E+000  0.00000000E+000
  0.00000000E+000  0.00000000E+000  0.00000000E+000
  0.00000000E+000  0.00000000E+000  0.00000000E+000
  0.00000000E+000  0.00000000E+000  0.00000000E+000
  0.17131092E+002 -0.24400079E+000 -0.43054582E+000
  0.16798804E+002  0.10592974E+000  0.15437414E+001
  0.16294386E+002  0.13479921E+000  0.86239011E+000
  0.15853181E+002  0.10110519E+000  0.77663315E+000
  0.15307781E+002  0.89624292E-001  0.35627997E+000
  0.15335953E+002  0.83000119E-001 -0.32257696E+000
  0.15894068E+002  0.82172572E-001 -0.74839794E+000
  0.16337718E+002  0.11727080E+000 -0.82963171E+000
  0.16707645E+002  0.14678415E+000 -0.38408631E+000
  0.16952057E+002 -0.12242995E+000  0.26779749E+000
  0.17125037E+002 -0.24344734E+000 -0.44080582E+000
  0.16863180E+002  0.61096413E-001  0.13743489E+001
  0.16439648E+002  0.99002696E-001  0.71597699E+000
  0.16074516E+002  0.82737801E-001  0.64441953E+000
  0.15592695E+002  0.82244503E-001  0.29443588E+000
  0.15615681E+002  0.77470314E-001 -0.27092127E+000
  0.16126459E+002  0.67226064E-001 -0.60522474E+000
  0.16495260E+002  0.86120635E-001 -0.67093397E+000
  0.16785433E+002  0.11068775E+000 -0.31107017E+000
  0.16941412E+002 -0.13501891E+000  0.29107866E+000
  0.17118819E+002 -0.24312227E+000 -0.45260444E+000
  0.16505426E+002 -0.83174811E-004  0.16421270E+001
  0.16601900E+002  0.54971606E-001  0.55195461E+000
  0.16361896E+002  0.48678707E-001  0.47134325E+000
  0.16036205E+002  0.50925673E-001  0.20253013E+000
  0.16049015E+002  0.48593411E-001 -0.18966376E+000
  0.16422145E+002  0.37100121E-001 -0.42155336E+000
  0.16665581E+002  0.46871557E-001 -0.49973521E+000
  0.16463916E+002  0.57519564E-001 -0.71427630E+000
  0.16929990E+002 -0.14601467E+000  0.31455487E+000
  0.17112284E+002 -0.24281508E+000 -0.46480873E+000
  0.16574842E+002 -0.26020792E-001  0.13665620E+001
  0.16774645E+002  0.42129569E-002  0.37652667E+000
  0.16686603E+002 -0.14721053E-003  0.27214051E+000
  0.16584813E+002 -0.79135236E-002  0.89395603E-001
  0.16582666E+002 -0.74465117E-002 -0.85593713E-001
  0.16753173E+002 -0.81956858E-002 -0.21276951E+000
  0.16842269E+002  0.86686632E-003 -0.32105062E+000
  0.16549613E+002  0.39565407E-001 -0.63667292E+000
  0.16917756E+002 -0.15546336E+000  0.33805258E+000
  0.17105404E+002 -0.24252996E+000 -0.47743274E+000
  0.16595368E+002 -0.35374930E-001  0.92305851E+000
  0.16951387E+002 -0.50884126E-001  0.19589913E+000
  0.17014771E+002 -0.58550891E-001  0.65237417E-001
  0.17156823E+002 -0.88283100E-001 -0.30454038E-001
  0.17140172E+002 -0.84173368E-001  0.27020760E-001
  0.17084997E+002 -0.63178096E-001  0.26731473E-002
  0.17019482E+002 -0.49892255E-001 -0.14047048E+000
  0.16629658E+002  0.21106133E-001 -0.56564142E+000
  0.16904671E+002 -0.16336003E+000  0.36139394E+000
  0.17098157E+002 -0.24228590E+000 -0.49049557E+000
  0.16671777E+002 -0.65767108E-001  0.65713108E+000
  0.17126153E+002 -0.10801425E+000  0.15926081E-001
  0.17313903E+002 -0.11959709E+000 -0.13077656E+000
  0.17666583E+002 -0.17492665E+000 -0.14092803E+000
  0.17637699E+002 -0.16760030E+000  0.13279311E+000
  0.17387634E+002 -0.12191244E+000  0.20597863E+000
  0.17192062E+002 -0.10320418E+000  0.36928408E-001
  0.16703828E+002  0.14747172E-002 -0.50670446E+000
  0.16890723E+002 -0.16981139E+000  0.38435865E+000
  0.17090661E+002 -0.24227284E+000 -0.50758741E+000
  0.16733802E+002 -0.84939225E-001  0.41693365E+000
  0.17293854E+002 -0.16521884E+000 -0.15820895E+000
  0.17561927E+002 -0.17613578E+000 -0.28589442E+000
  0.18050011E+002 -0.25238258E+000 -0.22860917E+000
  0.18013439E+002 -0.24291212E+000  0.21781896E+000
  0.17638986E+002 -0.17786341E+000  0.37453814E+000
  0.17356058E+002 -0.15711686E+000  0.20643404E+000
  0.16803075E+002 -0.76194211E-001 -0.39336810E+000
  0.16875891E+002 -0.17479087E+000  0.40674563E+000
  0.17082428E+002 -0.24184009E+000 -0.52108601E+000
  0.16783612E+002 -0.98562950E-001  0.20275520E+000
  0.17450299E+002 -0.21848727E+000 -0.32254911E+000
  0.17746464E+002 -0.22362529E+000 -0.42358079E+000
  0.18280446E+002 -0.30972917E+000 -0.28564617E+000
  0.18241067E+002 -0.29939434E+000  0.27595864E+000
  0.17826781E+002 -0.22675258E+000  0.51448329E+000
  0.17506709E+002 -0.20359154E+000  0.36514645E+000
  0.16869955E+002 -0.10007098E+000 -0.32718649E+000
  0.16860159E+002 -0.17831191E+000  0.42837621E+000
  0.17073624E+002 -0.24110136E+000 -0.53633356E+000
  0.16798819E+002 -0.11078892E+000 -0.63568398E+000
  0.17002820E+002 -0.18164554E+000  0.20722949E+000
  0.17867838E+002 -0.25980590E+000 -0.52187428E+000
  0.18368405E+002 -0.34273033E+000 -0.31175547E+000
  0.18330630E+002 -0.33272182E+000  0.30125471E+000
  0.17951919E+002 -0.26461151E+000  0.61308334E+000
  0.17086154E+002 -0.18675091E+000 -0.13157099E+000
  0.16928407E+002 -0.12172597E+000  0.95073597E-001
  0.16843516E+002 -0.18310161E+000  0.46590281E+000
