# vtk DataFile Version 2.0
BldPointCP.BldC
ASCII
 
DATASET POLYDATA
POINTS 9 double
  0.73136293E+001 -0.88623456E+001  0.10632211E+003
  0.17826690E+002 -0.21778076E+002  0.94551261E+002
  0.26252477E+002 -0.32089520E+002  0.82360398E+002
  0.31940396E+002 -0.39021418E+002  0.70100983E+002
  0.33761672E+002 -0.41227036E+002  0.58094432E+002
  0.31928644E+002 -0.38979323E+002  0.46095892E+002
  0.26239305E+002 -0.32037794E+002  0.33834099E+002
  0.17810972E+002 -0.21752892E+002  0.21613109E+002
  0.72605899E+001 -0.88684807E+001  0.98389376E+001
  
POINT_DATA 9
SCALARS Gamma_LL double
LOOKUP_TABLE default
  0.46773599E+002
  0.91107376E+002
  0.64828892E+002
  0.78813402E+002
  0.94447445E+002
  0.90058697E+002
  0.81389024E+002
  0.96998912E+002
  0.27314709E+002
VECTORS Vind_CP double
 -0.10161525E+000 -0.15954658E+000 -0.27603616E+000
 -0.92777230E-001  0.10548851E+000 -0.20062302E+000
 -0.11141952E+000  0.10720153E+000 -0.98850790E-001
 -0.26556154E+000  0.25041496E+000 -0.10343223E+000
 -0.40989692E+000  0.40598791E+000  0.50866670E-002
 -0.31587143E+000  0.30568341E+000  0.14293740E+000
 -0.16368561E+000  0.16659635E+000  0.16188945E+000
 -0.15077544E+000  0.15789816E+000  0.23202052E+000
 -0.68384585E-001 -0.80531520E-001  0.57290347E-001
VECTORS Vtot_CP double
 -0.37052606E+000 -0.13575104E+002  0.43262499E+000
 -0.23239692E+002 -0.31308423E+002  0.30339770E+000
 -0.42061014E+002 -0.45494793E+002 -0.73564006E+000
 -0.54275338E+002 -0.56419266E+002 -0.62372219E+000
 -0.57924348E+002 -0.60837280E+002  0.41096035E-001
 -0.54047695E+002 -0.57595397E+002  0.52753436E+000
 -0.41598473E+002 -0.46935275E+002  0.76523130E+000
 -0.22621026E+002 -0.31842990E+002  0.40553684E+000
  0.10793427E+001 -0.13225774E+002 -0.54918525E-001
VECTORS Vstr_CP double
  0.17468911E+002  0.13415557E+002 -0.70866115E+000
  0.40346915E+002  0.31413911E+002 -0.50402072E+000
  0.59149594E+002  0.45601995E+002  0.63678927E+000
  0.71209777E+002  0.56669681E+002  0.52028996E+000
  0.74714451E+002  0.61243268E+002 -0.36009368E-001
  0.70931823E+002  0.57901081E+002 -0.38459696E+000
  0.58634788E+002  0.47101871E+002 -0.60334185E+000
  0.39670251E+002  0.32000888E+002 -0.17351632E+000
  0.16052273E+002  0.13145242E+002  0.11220887E+000
VECTORS Vwnd_CP double
  0.17200000E+002  0.00000000E+000  0.00000000E+000
  0.17200000E+002  0.00000000E+000  0.00000000E+000
  0.17200000E+002  0.00000000E+000  0.00000000E+000
  0.17200000E+002  0.00000000E+000  0.00000000E+000
  0.17200000E+002  0.00000000E+000  0.00000000E+000
  0.17200000E+002  0.00000000E+000  0.00000000E+000
  0.17200000E+002  0.00000000E+000  0.00000000E+000
  0.17200000E+002  0.00000000E+000  0.00000000E+000
  0.17200000E+002  0.00000000E+000  0.00000000E+000
VECTORS Tangent double
 -0.57882153E+000 -0.81545415E+000  0.42267309E-003
 -0.77301977E+000 -0.63437920E+000  0.18604057E-002
 -0.77691141E+000 -0.62960958E+000  0.66731579E-003
 -0.77531052E+000 -0.63158012E+000 -0.39290448E-003
 -0.77278246E+000 -0.63467095E+000 -0.25903558E-003
 -0.77406185E+000 -0.63310990E+000 -0.31734152E-003
 -0.77510372E+000 -0.63183401E+000 -0.13272393E-004
 -0.77343533E+000 -0.63387520E+000  0.11367910E-003
 -0.77316945E+000 -0.63419595E+000 -0.21223958E-002
VECTORS Normal double
  0.43088970E+000 -0.30541180E+000  0.84915116E+000
  0.40792888E+000 -0.49482962E+000  0.76729243E+000
  0.44630932E+000 -0.54997850E+000  0.70592609E+000
  0.56730051E+000 -0.69667580E+000  0.43910473E+000
  0.63467001E+000 -0.77278047E+000 -0.20791901E-002
  0.56821067E+000 -0.69449259E+000 -0.44138043E+000
  0.44823120E+000 -0.54985377E+000 -0.70480467E+000
  0.40754326E+000 -0.49740929E+000 -0.76582797E+000
  0.32637028E+000 -0.39501502E+000 -0.85874651E+000
VECTORS Orth double
  0.69231475E+000 -0.49168910E+000 -0.52814972E+000
  0.48583378E+000 -0.59389114E+000 -0.64129468E+000
  0.44409081E+000 -0.54873986E+000 -0.70828519E+000
  0.27760354E+000 -0.34021962E+000 -0.89843580E+000
 -0.11194239E-002  0.17711638E-002 -0.99999780E+000
 -0.27922193E+000  0.34183607E+000 -0.89732002E+000
 -0.44531226E+000  0.54630267E+000 -0.70940142E+000
 -0.48549591E+000  0.59227208E+000 -0.64304549E+000
 -0.54377518E+000  0.66464925E+000 -0.51239625E+000
