# vtk DataFile Version 2.0

ASCII
 
DATASET POLYDATA
POINTS 140 double
  0.16465822E+000  0.36402952E-001  0.11318119E+003
  0.62601186E+001  0.19608753E+002  0.10083254E+003
  0.10629892E+002  0.33534365E+002  0.88723874E+002
  0.14309514E+002  0.45154235E+002  0.76532336E+002
  0.16101386E+002  0.50810422E+002  0.64216687E+002
  0.16093435E+002  0.50755902E+002  0.51956311E+002
  0.14289995E+002  0.45047748E+002  0.39669817E+002
  0.10619022E+002  0.33473413E+002  0.27425126E+002
  0.62169352E+001  0.19589259E+002  0.15263152E+002
  0.18460798E-003  0.49774484E-004  0.30001762E+001
  0.31944432E+001 -0.32907999E+001  0.11319233E+003
  0.10445708E+002  0.18212774E+002  0.10082602E+003
  0.13584416E+002  0.32606268E+002  0.88719248E+002
  0.16657122E+002  0.44434468E+002  0.76531730E+002
  0.18250818E+002  0.50125977E+002  0.64216727E+002
  0.18281274E+002  0.50047602E+002  0.51956036E+002
  0.16771917E+002  0.44272135E+002  0.39669176E+002
  0.13886567E+002  0.32444817E+002  0.27425284E+002
  0.10502814E+002  0.18217674E+002  0.15263653E+002
  0.42890552E+001 -0.13618352E+001  0.30294677E+001
  0.33060347E+001 -0.33470816E+001  0.11318793E+003
  0.10942496E+002  0.18017900E+002  0.10080989E+003
  0.14340084E+002  0.32353230E+002  0.88715579E+002
  0.17625052E+002  0.44123432E+002  0.76529730E+002
  0.19319136E+002  0.49780075E+002  0.64215461E+002
  0.19347641E+002  0.49699541E+002  0.51958202E+002
  0.17736002E+002  0.43956556E+002  0.39672982E+002
  0.14638846E+002  0.32185356E+002  0.27429731E+002
  0.10999549E+002  0.18022113E+002  0.15267703E+002
  0.44343488E+001 -0.14386170E+001  0.30364051E+001
  0.33911148E+001 -0.34035802E+001  0.11317950E+003
  0.11429461E+002  0.17824519E+002  0.10081102E+003
  0.15087379E+002  0.32076810E+002  0.88714371E+002
  0.18584467E+002  0.43772663E+002  0.76519345E+002
  0.20386861E+002  0.49412951E+002  0.64214394E+002
  0.20414352E+002  0.49341781E+002  0.51962279E+002
  0.18694087E+002  0.43620844E+002  0.39683737E+002
  0.15384669E+002  0.31909046E+002  0.27441182E+002
  0.11493249E+002  0.17821791E+002  0.15271056E+002
  0.45787225E+001 -0.15141245E+001  0.30391032E+001
  0.34767046E+001 -0.34589528E+001  0.11317316E+003
  0.11914788E+002  0.17626116E+002  0.10081519E+003
  0.15829647E+002  0.31789289E+002  0.88712424E+002
  0.19536573E+002  0.43408430E+002  0.76508876E+002
  0.21447026E+002  0.49030284E+002  0.64213199E+002
  0.21474253E+002  0.48967955E+002  0.51966196E+002
  0.19646392E+002  0.43271748E+002  0.39693533E+002
  0.16125625E+002  0.31622698E+002  0.27451932E+002
  0.11983738E+002  0.17616574E+002  0.15273689E+002
  0.47213494E+001 -0.15900289E+001  0.30412831E+001
  0.35632155E+001 -0.35129327E+001  0.11317028E+003
  0.12398256E+002  0.17422837E+002  0.10082567E+003
  0.16567146E+002  0.31491941E+002  0.88710882E+002
  0.20481289E+002  0.43031449E+002  0.76498392E+002
  0.22500488E+002  0.48635206E+002  0.64212198E+002
  0.22528318E+002  0.48581466E+002  0.51969427E+002
  0.20592586E+002  0.42909676E+002  0.39702511E+002
  0.16861756E+002  0.31326948E+002  0.27461194E+002
  0.12471056E+002  0.17406720E+002  0.15274860E+002
  0.48629817E+001 -0.16650887E+001  0.30440656E+001
  0.36509807E+001 -0.35650343E+001  0.11316621E+003
  0.12879754E+002  0.17214518E+002  0.10084067E+003
  0.17299314E+002  0.31184186E+002  0.88708710E+002
  0.21418655E+002  0.42642463E+002  0.76487869E+002
  0.23547898E+002  0.48229948E+002  0.64211928E+002
  0.23577110E+002  0.48184440E+002  0.51971293E+002
  0.21532578E+002  0.42534824E+002  0.39710805E+002
  0.17592572E+002  0.31021051E+002  0.27469813E+002
  0.12955190E+002  0.17192322E+002  0.15274396E+002
  0.50036401E+001 -0.17394779E+001  0.30417336E+001
  0.37400495E+001 -0.36156620E+001  0.11316328E+003
  0.13358956E+002  0.17001041E+002  0.10086004E+003
  0.18026352E+002  0.30867466E+002  0.88707105E+002
  0.22349585E+002  0.42244222E+002  0.76479415E+002
  0.24589180E+002  0.47814498E+002  0.64212271E+002
  0.24619850E+002  0.47775303E+002  0.51972621E+002
  0.22466513E+002  0.42148550E+002  0.39717013E+002
  0.18318284E+002  0.30706174E+002  0.27476516E+002
  0.13436042E+002  0.16973383E+002  0.15271899E+002
  0.51432336E+001 -0.18133501E+001  0.30388984E+001
  0.38319005E+001 -0.36621386E+001  0.11315464E+003
  0.13835561E+002  0.16782114E+002  0.10088203E+003
  0.18748051E+002  0.30542199E+002  0.88705830E+002
  0.23272983E+002  0.41834499E+002  0.76471814E+002
  0.25624023E+002  0.47388736E+002  0.64213661E+002
  0.25657211E+002  0.47356785E+002  0.51971367E+002
  0.23393999E+002  0.41750695E+002  0.39720205E+002
  0.19039332E+002  0.30383953E+002  0.27479678E+002
  0.13913477E+002  0.16749709E+002  0.15267423E+002
  0.52822771E+001 -0.18857040E+001  0.30357005E+001
  0.39243412E+001 -0.37089422E+001  0.11314841E+003
  0.14309104E+002  0.16557159E+002  0.10090396E+003
  0.19464485E+002  0.30209572E+002  0.88706002E+002
  0.24190446E+002  0.41417480E+002  0.76467856E+002
  0.26650970E+002  0.46949252E+002  0.64215625E+002
  0.26686775E+002  0.46923447E+002  0.51969068E+002
  0.24315051E+002  0.41342550E+002  0.39720506E+002
  0.19754863E+002  0.30052877E+002  0.27480876E+002
  0.14387221E+002  0.16521040E+002  0.15261324E+002
  0.54195054E+001 -0.19588365E+001  0.30323678E+001
  0.40182205E+001 -0.37555608E+001  0.11315106E+003
  0.14778785E+002  0.16324964E+002  0.10092226E+003
  0.20174995E+002  0.29869056E+002  0.88705967E+002
  0.25100484E+002  0.40989659E+002  0.76465236E+002
  0.27668089E+002  0.46492032E+002  0.64216956E+002
  0.27706141E+002  0.46470787E+002  0.51966915E+002
  0.25227766E+002  0.40920472E+002  0.39719924E+002
  0.20464477E+002  0.29712793E+002  0.27480740E+002
  0.14856930E+002  0.16286962E+002  0.15254179E+002
  0.55555664E+001 -0.20313341E+001  0.30291872E+001
  0.41149575E+001 -0.37986018E+001  0.11314812E+003
  0.15244502E+002  0.16086619E+002  0.10093603E+003
  0.20878806E+002  0.29519991E+002  0.88704169E+002
  0.26002880E+002  0.40550382E+002  0.76463623E+002
  0.28673815E+002  0.46014386E+002  0.64217507E+002
  0.28713061E+002  0.45995366E+002  0.51965353E+002
  0.26131240E+002  0.40483318E+002  0.39719275E+002
  0.21166864E+002  0.29361678E+002  0.27482227E+002
  0.15320822E+002  0.16044316E+002  0.15250357E+002
  0.56903640E+001 -0.21031293E+001  0.30264512E+001
  0.42137217E+001 -0.38414407E+001  0.11314547E+003
  0.15705490E+002  0.15842338E+002  0.10094745E+003
  0.21577329E+002  0.29165586E+002  0.88703597E+002
  0.26897975E+002  0.40100086E+002  0.76462665E+002
  0.29668327E+002  0.45517603E+002  0.64217034E+002
  0.29707049E+002  0.45497167E+002  0.51965056E+002
  0.27025774E+002  0.40032152E+002  0.39718948E+002
  0.21863531E+002  0.29003609E+002  0.27481747E+002
  0.15780905E+002  0.15798361E+002  0.15244109E+002
  0.58238161E+001 -0.21743270E+001  0.30245317E+001
  0.43145366E+001 -0.38831515E+001  0.11314613E+003
  0.16161766E+002  0.15593161E+002  0.10095166E+003
  0.22271334E+002  0.28806248E+002  0.88704876E+002
  0.27787278E+002  0.39641739E+002  0.76462937E+002
  0.30653300E+002  0.45005390E+002  0.64216387E+002
  0.30692117E+002  0.44985222E+002  0.51965549E+002
  0.27913884E+002  0.39571836E+002  0.39718171E+002
  0.22555226E+002  0.28640073E+002  0.27479102E+002
  0.16236153E+002  0.15547183E+002  0.15240122E+002
  0.59561721E+001 -0.22445134E+001  0.30235041E+001
  
POLYGONS 117 585
      4      0      1     11     10
      4      1      2     12     11
      4      2      3     13     12
      4      3      4     14     13
      4      4      5     15     14
      4      5      6     16     15
      4      6      7     17     16
      4      7      8     18     17
      4      8      9     19     18
      4     10     11     21     20
      4     11     12     22     21
      4     12     13     23     22
      4     13     14     24     23
      4     14     15     25     24
      4     15     16     26     25
      4     16     17     27     26
      4     17     18     28     27
      4     18     19     29     28
      4     20     21     31     30
      4     21     22     32     31
      4     22     23     33     32
      4     23     24     34     33
      4     24     25     35     34
      4     25     26     36     35
      4     26     27     37     36
      4     27     28     38     37
      4     28     29     39     38
      4     30     31     41     40
      4     31     32     42     41
      4     32     33     43     42
      4     33     34     44     43
      4     34     35     45     44
      4     35     36     46     45
      4     36     37     47     46
      4     37     38     48     47
      4     38     39     49     48
      4     40     41     51     50
      4     41     42     52     51
      4     42     43     53     52
      4     43     44     54     53
      4     44     45     55     54
      4     45     46     56     55
      4     46     47     57     56
      4     47     48     58     57
      4     48     49     59     58
      4     50     51     61     60
      4     51     52     62     61
      4     52     53     63     62
      4     53     54     64     63
      4     54     55     65     64
      4     55     56     66     65
      4     56     57     67     66
      4     57     58     68     67
      4     58     59     69     68
      4     60     61     71     70
      4     61     62     72     71
      4     62     63     73     72
      4     63     64     74     73
      4     64     65     75     74
      4     65     66     76     75
      4     66     67     77     76
      4     67     68     78     77
      4     68     69     79     78
      4     70     71     81     80
      4     71     72     82     81
      4     72     73     83     82
      4     73     74     84     83
      4     74     75     85     84
      4     75     76     86     85
      4     76     77     87     86
      4     77     78     88     87
      4     78     79     89     88
      4     80     81     91     90
      4     81     82     92     91
      4     82     83     93     92
      4     83     84     94     93
      4     84     85     95     94
      4     85     86     96     95
      4     86     87     97     96
      4     87     88     98     97
      4     88     89     99     98
      4     90     91    101    100
      4     91     92    102    101
      4     92     93    103    102
      4     93     94    104    103
      4     94     95    105    104
      4     95     96    106    105
      4     96     97    107    106
      4     97     98    108    107
      4     98     99    109    108
      4    100    101    111    110
      4    101    102    112    111
      4    102    103    113    112
      4    103    104    114    113
      4    104    105    115    114
      4    105    106    116    115
      4    106    107    117    116
      4    107    108    118    117
      4    108    109    119    118
      4    110    111    121    120
      4    111    112    122    121
      4    112    113    123    122
      4    113    114    124    123
      4    114    115    125    124
      4    115    116    126    125
      4    116    117    127    126
      4    117    118    128    127
      4    118    119    129    128
      4    120    121    131    130
      4    121    122    132    131
      4    122    123    133    132
      4    123    124    134    133
      4    124    125    135    134
      4    125    126    136    135
      4    126    127    137    136
      4    127    128    138    137
      4    128    129    139    138
  
CELL_DATA 117
SCALARS Gamma double
LOOKUP_TABLE default
  0.11403790E+003
  0.51478077E+002
  0.18775874E+002
  0.28794885E+002
  0.51080533E+002
  0.43549698E+002
  0.30028876E+002
  0.42894831E+002
  0.50644209E+002
  0.11403790E+003
  0.51478077E+002
  0.18775874E+002
  0.28794885E+002
  0.51080533E+002
  0.43549698E+002
  0.30028876E+002
  0.42894831E+002
  0.50644209E+002
  0.11487674E+003
  0.54509432E+002
  0.21238922E+002
  0.31578756E+002
  0.54134381E+002
  0.46517198E+002
  0.32831361E+002
  0.46126820E+002
  0.53508508E+002
  0.11550391E+003
  0.55599070E+002
  0.22622397E+002
  0.34596947E+002
  0.56909105E+002
  0.48939084E+002
  0.35019932E+002
  0.49063237E+002
  0.56174020E+002
  0.11260791E+003
  0.55118972E+002
  0.23710119E+002
  0.36574781E+002
  0.57627379E+002
  0.49673087E+002
  0.36249274E+002
  0.50634756E+002
  0.57102687E+002
  0.10000560E+003
  0.49889924E+002
  0.22951288E+002
  0.35053800E+002
  0.52787068E+002
  0.45703218E+002
  0.34215870E+002
  0.47591404E+002
  0.52785673E+002
  0.80240252E+002
  0.41003710E+002
  0.20324579E+002
  0.30230284E+002
  0.43423174E+002
  0.37859980E+002
  0.29248693E+002
  0.40490246E+002
  0.44129981E+002
  0.57999852E+002
  0.30493256E+002
  0.16374694E+002
  0.23384678E+002
  0.31974723E+002
  0.28167340E+002
  0.22576558E+002
  0.31041105E+002
  0.33225043E+002
  0.35761694E+002
  0.19421458E+002
  0.11297451E+002
  0.15331624E+002
  0.19929530E+002
  0.17800053E+002
  0.14857698E+002
  0.20276385E+002
  0.21328000E+002
  0.15959946E+002
  0.89899100E+001
  0.56573961E+001
  0.72274289E+001
  0.89183685E+001
  0.81136264E+001
  0.70842443E+001
  0.95628548E+001
  0.98835952E+001
  0.32256505E+001
  0.18979344E+001
  0.12865983E+001
  0.15436262E+001
  0.18072758E+001
  0.16817938E+001
  0.15339126E+001
  0.20388992E+001
  0.20787311E+001
  0.37831218E-001
  0.23374740E-001
  0.16846978E-001
  0.18749696E-001
  0.20843277E-001
  0.19884976E-001
  0.19074689E-001
  0.25027292E-001
  0.25240302E-001
  0.00000000E+000
  0.00000000E+000
  0.00000000E+000
  0.00000000E+000
  0.00000000E+000
  0.00000000E+000
  0.00000000E+000
  0.00000000E+000
  0.00000000E+000
POINT_DATA 140
VECTORS Uconv double
  0.00000000E+000  0.00000000E+000  0.00000000E+000
  0.00000000E+000  0.00000000E+000  0.00000000E+000
  0.00000000E+000  0.00000000E+000  0.00000000E+000
  0.00000000E+000  0.00000000E+000  0.00000000E+000
  0.00000000E+000  0.00000000E+000  0.00000000E+000
  0.00000000E+000  0.00000000E+000  0.00000000E+000
  0.00000000E+000  0.00000000E+000  0.00000000E+000
  0.00000000E+000  0.00000000E+000  0.00000000E+000
  0.00000000E+000  0.00000000E+000  0.00000000E+000
  0.00000000E+000  0.00000000E+000  0.00000000E+000
  0.00000000E+000  0.00000000E+000  0.00000000E+000
  0.00000000E+000  0.00000000E+000  0.00000000E+000
  0.00000000E+000  0.00000000E+000  0.00000000E+000
  0.00000000E+000  0.00000000E+000  0.00000000E+000
  0.00000000E+000  0.00000000E+000  0.00000000E+000
  0.00000000E+000  0.00000000E+000  0.00000000E+000
  0.00000000E+000  0.00000000E+000  0.00000000E+000
  0.00000000E+000  0.00000000E+000  0.00000000E+000
  0.00000000E+000  0.00000000E+000  0.00000000E+000
  0.00000000E+000  0.00000000E+000  0.00000000E+000
  0.17137974E+002  0.71900054E-001 -0.44015827E+000
  0.17045566E+002 -0.37842848E+000 -0.16132666E+001
  0.17060575E+002 -0.30842558E+000 -0.36691499E+000
  0.17033081E+002 -0.38169406E+000 -0.20000591E+000
  0.16846812E+002 -0.90585458E+000 -0.12659880E+000
  0.16793416E+002 -0.10680112E+001  0.21665474E+000
  0.16942693E+002 -0.63210451E+000  0.38064865E+000
  0.17017329E+002 -0.40890240E+000  0.44463565E+000
  0.17032372E+002 -0.34423994E+000  0.40501371E+000
  0.17051702E+002  0.24667520E-001  0.69373968E+000
  0.17142203E+002  0.81225467E-001 -0.43899602E+000
  0.17067468E+002 -0.34791351E+000 -0.14915874E+001
  0.17075269E+002 -0.27350951E+000 -0.32717776E+000
  0.17024894E+002 -0.40564401E+000 -0.21289564E+000
  0.16812457E+002 -0.99704231E+000 -0.13945448E+000
  0.16759985E+002 -0.11545884E+001  0.22984771E+000
  0.16934742E+002 -0.65337080E+000  0.39336400E+000
  0.17022171E+002 -0.39660501E+000  0.43027355E+000
  0.17042442E+002 -0.31806279E+000  0.39123881E+000
  0.17057477E+002  0.33043190E-001  0.66763620E+000
  0.17146329E+002  0.90836443E-001 -0.43813660E+000
  0.17090640E+002 -0.31319766E+000 -0.13451437E+001
  0.17085327E+002 -0.25053380E+000 -0.29887250E+000
  0.17033763E+002 -0.38964362E+000 -0.19254747E+000
  0.16797365E+002 -0.10360758E+001 -0.14522949E+000
  0.16748110E+002 -0.11820142E+001  0.23058798E+000
  0.16939222E+002 -0.64336339E+000  0.38535043E+000
  0.17032379E+002 -0.37215419E+000  0.40120436E+000
  0.17054892E+002 -0.28832022E+000  0.37505833E+000
  0.17063122E+002  0.41160331E-001  0.64266707E+000
  0.17150454E+002  0.10081495E+000 -0.43216727E+000
  0.17111574E+002 -0.27329555E+000 -0.11466546E+001
  0.17099951E+002 -0.21798921E+000 -0.25471184E+000
  0.17044555E+002 -0.36927385E+000 -0.17846224E+000
  0.16813467E+002 -0.99477246E+000 -0.14046042E+000
  0.16771087E+002 -0.11188790E+001  0.21522377E+000
  0.16959992E+002 -0.59445661E+000  0.35224862E+000
  0.17048824E+002 -0.33482956E+000  0.35742929E+000
  0.17069204E+002 -0.25545873E+000  0.34765713E+000
  0.17064979E+002  0.42259621E-001  0.62044201E+000
  0.17154448E+002  0.11106463E+000 -0.43108027E+000
  0.17130818E+002 -0.23088611E+000 -0.93407146E+000
  0.17090582E+002 -0.25403491E+000 -0.28578993E+000
  0.17038287E+002 -0.40032586E+000 -0.23256976E+000
  0.16866594E+002 -0.86083761E+000 -0.12127231E+000
  0.16834071E+002 -0.95503106E+000  0.18045735E+000
  0.16954108E+002 -0.62657229E+000  0.42111639E+000
  0.17027752E+002 -0.40273535E+000  0.42194012E+000
  0.17085237E+002 -0.22032425E+000  0.31351753E+000
  0.17070762E+002  0.50262127E-001  0.59907623E+000
  0.17158345E+002  0.12156709E+000 -0.43016326E+000
  0.17147315E+002 -0.18619767E+000 -0.70167151E+000
  0.17114364E+002 -0.20175675E+000 -0.22173237E+000
  0.17075386E+002 -0.32007591E+000 -0.17480022E+000
  0.16905817E+002 -0.77903737E+000 -0.15637928E+000
  0.16863233E+002 -0.89996822E+000  0.22935111E+000
  0.17010805E+002 -0.49446057E+000  0.33011926E+000
  0.17057125E+002 -0.33631482E+000  0.34448363E+000
  0.17102417E+002 -0.18366771E+000  0.26914030E+000
  0.17076501E+002  0.58258651E-001  0.57909476E+000
  0.17295900E+002  0.40415913E+000 -0.11245396E+001
  0.17161617E+002 -0.14040432E+000 -0.46359579E+000
  0.17141273E+002 -0.14419869E+000 -0.15112683E+000
  0.17079595E+002 -0.33044689E+000 -0.16742046E+000
  0.17024326E+002 -0.49308643E+000 -0.10113018E+000
  0.16996540E+002 -0.56924019E+000  0.14981358E+000
  0.17018296E+002 -0.49942817E+000  0.30595452E+000
  0.17089820E+002 -0.26362358E+000  0.26635375E+000
  0.17123896E+002 -0.14946620E+000  0.22004707E+000
  0.17135662E+002  0.16713106E+000  0.55865577E+000
  0.17173538E+002  0.20604801E+000 -0.10785497E+001
  0.17168708E+002 -0.11109376E+000 -0.26898125E+000
  0.17169569E+002 -0.85013857E-001 -0.78392061E-001
  0.17137575E+002 -0.20297574E+000 -0.87925608E-001
  0.17146553E+002 -0.20945535E+000 -0.40072236E-001
  0.17132126E+002 -0.24666834E+000  0.70562697E-001
  0.17100104E+002 -0.31047037E+000  0.17918759E+000
  0.17125048E+002 -0.18748055E+000  0.17535886E+000
  0.17141458E+002 -0.11333838E+000  0.16480068E+000
  0.17125923E+002  0.14613129E+000  0.54118147E+000
  0.17214390E+002  0.26529184E+000 -0.91367795E+000
  0.17183287E+002 -0.66156232E-001 -0.67617953E-001
  0.17197721E+002 -0.27912827E-001 -0.14200274E-001
  0.17191828E+002 -0.87210660E-001 -0.14919475E-001
  0.17254856E+002  0.29940171E-001  0.87057203E-002
  0.17250907E+002  0.21159431E-001  0.45128117E-002
  0.17175659E+002 -0.14227544E+000  0.62001628E-001
  0.17160060E+002 -0.11386646E+000  0.87639876E-001
  0.17159456E+002 -0.78017431E-001  0.10184411E+000
  0.17121698E+002  0.13564347E+000  0.52472230E+000
  0.17229202E+002  0.30125854E+000 -0.93765312E+000
  0.17200620E+002 -0.21675955E-001  0.66149424E-001
  0.17224147E+002  0.23897350E-001  0.51214082E-001
  0.17237143E+002  0.64074519E-002  0.44803949E-001
  0.17335933E+002  0.19809848E+000  0.45879019E-001
  0.17338982E+002  0.20907741E+000 -0.45491235E-001
  0.17238289E+002 -0.83874715E-002 -0.31457353E-001
  0.17193296E+002 -0.46932347E-001  0.76900249E-002
  0.17177009E+002 -0.44703657E-001  0.41779582E-001
  0.17123428E+002  0.13657530E+000  0.50709887E+000
  0.17216006E+002  0.28061577E+000 -0.87033871E+000
  0.17218475E+002  0.19232602E-001  0.25442572E+000
  0.17247783E+002  0.68647657E-001  0.10435548E+000
  0.17270526E+002  0.73663095E-001  0.89817043E-001
  0.17385294E+002  0.29226162E+000  0.69452705E-001
  0.17393799E+002  0.31341866E+000 -0.76454814E-001
  0.17283188E+002  0.92327599E-001 -0.10840568E+000
  0.17222434E+002  0.10380989E-001 -0.58927088E-001
  0.17192579E+002 -0.14673215E-001 -0.18040383E-001
  0.17122172E+002  0.13190261E+000  0.49303434E+000
  0.17217183E+002  0.28437842E+000 -0.81420655E+000
  0.17235228E+002  0.56097898E-001  0.28073321E+000
  0.17267414E+002  0.10478056E+000  0.14489399E+000
  0.17292268E+002  0.11572972E+000  0.11678440E+000
  0.17406731E+002  0.32728089E+000  0.80688355E-001
  0.17413794E+002  0.34386838E+000 -0.89046877E-001
  0.17312949E+002  0.15174333E+000 -0.15109484E+000
  0.17246755E+002  0.57276234E-001 -0.11422730E+000
  0.17207693E+002  0.12948561E-001 -0.68999013E-001
  0.17122693E+002  0.13069211E+000  0.48044437E+000
