# vtk DataFile Version 2.0

ASCII
 
DATASET POLYDATA
POINTS 40 double
  0.84396906E-003  0.15477816E-003  0.11318284E+003
  0.96280288E+001  0.18156897E+002  0.10093952E+003
  0.16418703E+002  0.30962586E+002  0.88698587E+002
  0.22105988E+002  0.41687760E+002  0.76456043E+002
  0.24949453E+002  0.47050077E+002  0.64213108E+002
  0.24949389E+002  0.47049976E+002  0.51970046E+002
  0.22105957E+002  0.41687626E+002  0.39727064E+002
  0.16418505E+002  0.30962460E+002  0.27484488E+002
  0.96279721E+001  0.18156668E+002  0.15243298E+002
  0.15783294E-004  0.33315204E-005  0.30000098E+001
  0.23899979E+001 -0.38132352E+001  0.11318291E+003
  0.13525923E+002  0.16089442E+002  0.10093965E+003
  0.19154700E+002  0.29511753E+002  0.88698736E+002
  0.24275377E+002  0.40537507E+002  0.76456093E+002
  0.26942402E+002  0.45993346E+002  0.64213124E+002
  0.26981169E+002  0.45972852E+002  0.51969990E+002
  0.24403393E+002  0.40469715E+002  0.39726955E+002
  0.19444933E+002  0.29357593E+002  0.27484503E+002
  0.13603594E+002  0.16048487E+002  0.15243303E+002
  0.39756667E+001 -0.21081237E+001  0.30003018E+001
  0.24929308E+001 -0.38556625E+001  0.11318291E+003
  0.13985513E+002  0.15843218E+002  0.10093965E+003
  0.19855125E+002  0.29161974E+002  0.88698736E+002
  0.25173554E+002  0.40093714E+002  0.76456093E+002
  0.27938409E+002  0.45500632E+002  0.64213124E+002
  0.27976800E+002  0.45479443E+002  0.51969990E+002
  0.25300328E+002  0.40023629E+002  0.39726955E+002
  0.20142532E+002  0.29002612E+002  0.27484503E+002
  0.14062434E+002  0.15800870E+002  0.15243303E+002
  0.41090528E+001 -0.21793868E+001  0.30003018E+001
  0.25940000E+001 -0.38971143E+001  0.11318291E+003
  0.14440721E+002  0.15591736E+002  0.10094036E+003
  0.20548129E+002  0.28800840E+002  0.88697816E+002
  0.26062071E+002  0.39634067E+002  0.76455271E+002
  0.28923837E+002  0.44990177E+002  0.64212725E+002
  0.28961820E+002  0.44968247E+002  0.51970180E+002
  0.26187491E+002  0.39561656E+002  0.39727634E+002
  0.20832835E+002  0.28636465E+002  0.27485089E+002
  0.14516714E+002  0.15547861E+002  0.15242543E+002
  0.42411143E+001 -0.22500000E+001  0.29999979E+001
  
POLYGONS 27 135
      4      0      1     11     10
      4      1      2     12     11
      4      2      3     13     12
      4      3      4     14     13
      4      4      5     15     14
      4      5      6     16     15
      4      6      7     17     16
      4      7      8     18     17
      4      8      9     19     18
      4     10     11     21     20
      4     11     12     22     21
      4     12     13     23     22
      4     13     14     24     23
      4     14     15     25     24
      4     15     16     26     25
      4     16     17     27     26
      4     17     18     28     27
      4     18     19     29     28
      4     20     21     31     30
      4     21     22     32     31
      4     22     23     33     32
      4     23     24     34     33
      4     24     25     35     34
      4     25     26     36     35
      4     26     27     37     36
      4     27     28     38     37
      4     28     29     39     38
  
CELL_DATA 27
SCALARS Gamma double
LOOKUP_TABLE default
  0.37828913E-001
  0.24458689E-001
  0.19210240E-001
  0.20399352E-001
  0.21936031E-001
  0.21245590E-001
  0.20926311E-001
  0.25812927E-001
  0.24788698E-001
  0.37828913E-001
  0.24458689E-001
  0.19210240E-001
  0.20399352E-001
  0.21936031E-001
  0.21245590E-001
  0.20926311E-001
  0.25812927E-001
  0.24788698E-001
  0.00000000E+000
  0.00000000E+000
  0.00000000E+000
  0.00000000E+000
  0.00000000E+000
  0.00000000E+000
  0.00000000E+000
  0.00000000E+000
  0.00000000E+000
POINT_DATA 40
VECTORS Uconv double
  0.00000000E+000  0.00000000E+000  0.00000000E+000
  0.00000000E+000  0.00000000E+000  0.00000000E+000
  0.00000000E+000  0.00000000E+000  0.00000000E+000
  0.00000000E+000  0.00000000E+000  0.00000000E+000
  0.00000000E+000  0.00000000E+000  0.00000000E+000
  0.00000000E+000  0.00000000E+000  0.00000000E+000
  0.00000000E+000  0.00000000E+000  0.00000000E+000
  0.00000000E+000  0.00000000E+000  0.00000000E+000
  0.00000000E+000  0.00000000E+000  0.00000000E+000
  0.00000000E+000  0.00000000E+000  0.00000000E+000
  0.00000000E+000  0.00000000E+000  0.00000000E+000
  0.00000000E+000  0.00000000E+000  0.00000000E+000
  0.00000000E+000  0.00000000E+000  0.00000000E+000
  0.00000000E+000  0.00000000E+000  0.00000000E+000
  0.00000000E+000  0.00000000E+000  0.00000000E+000
  0.00000000E+000  0.00000000E+000  0.00000000E+000
  0.00000000E+000  0.00000000E+000  0.00000000E+000
  0.00000000E+000  0.00000000E+000  0.00000000E+000
  0.00000000E+000  0.00000000E+000  0.00000000E+000
  0.00000000E+000  0.00000000E+000  0.00000000E+000
  0.17200000E+002  0.00000000E+000  0.00000000E+000
  0.17200000E+002  0.00000000E+000  0.00000000E+000
  0.17200000E+002  0.00000000E+000  0.00000000E+000
  0.17200000E+002  0.00000000E+000  0.00000000E+000
  0.17200000E+002  0.00000000E+000  0.00000000E+000
  0.17200000E+002  0.00000000E+000  0.00000000E+000
  0.17200000E+002  0.00000000E+000  0.00000000E+000
  0.17200000E+002  0.00000000E+000  0.00000000E+000
  0.17200000E+002  0.00000000E+000  0.00000000E+000
  0.17200000E+002  0.00000000E+000  0.00000000E+000
  0.17200000E+002  0.00000000E+000  0.00000000E+000
  0.17200000E+002  0.00000000E+000  0.00000000E+000
  0.17200000E+002  0.00000000E+000  0.00000000E+000
  0.17200000E+002  0.00000000E+000  0.00000000E+000
  0.17200000E+002  0.00000000E+000  0.00000000E+000
  0.17200000E+002  0.00000000E+000  0.00000000E+000
  0.17200000E+002  0.00000000E+000  0.00000000E+000
  0.17200000E+002  0.00000000E+000  0.00000000E+000
  0.17200000E+002  0.00000000E+000  0.00000000E+000
  0.17200000E+002  0.00000000E+000  0.00000000E+000
