# vtk DataFile Version 2.0
BldPointCP.BldB
ASCII
 
DATASET POLYDATA
POINTS 9 double
  0.28476316E+001  0.11190776E+002  0.10626442E+003
  0.66096360E+001  0.27426315E+002  0.94499985E+002
  0.96643911E+001  0.40447590E+002  0.82387510E+002
  0.11720208E+002  0.49128429E+002  0.70123288E+002
  0.12371593E+002  0.51813485E+002  0.58082002E+002
  0.11718405E+002  0.48991998E+002  0.46060941E+002
  0.96533682E+001  0.40312866E+002  0.33773750E+002
  0.65572420E+001  0.27367800E+002  0.21578780E+002
  0.26716882E+001  0.11146182E+002  0.98392113E+001
  
POINT_DATA 9
SCALARS Gamma_LL double
LOOKUP_TABLE default
  0.10835136E+003
  0.47337735E+002
  0.16600712E+002
  0.18756772E+002
  0.39423985E+002
  0.33547200E+002
  0.22607854E+002
  0.32522355E+002
  0.39879240E+002
VECTORS Vind_CP double
 -0.41625564E-002 -0.11135335E+000 -0.47749101E+000
 -0.70079242E-001 -0.14903083E+000 -0.20791805E+000
 -0.43532465E-001 -0.10007381E+000 -0.36631697E-001
 -0.60091179E-001 -0.23369060E+000 -0.17396200E-001
 -0.10655183E+000 -0.47145121E+000  0.28687381E-001
 -0.11013038E+000 -0.39329003E+000  0.11675124E+000
 -0.70100362E-001 -0.19969592E+000  0.11462946E+000
 -0.60930507E-001 -0.17920575E+000  0.16968713E+000
 -0.11491291E+000 -0.67462240E-001  0.11465077E+000
VECTORS Vtot_CP double
  0.35049078E+002 -0.53894081E+001  0.21251313E+000
  0.65597286E+002 -0.12664252E+002  0.59051926E+000
  0.90011552E+002 -0.19053983E+002 -0.93279071E-001
  0.10626964E+003 -0.22565776E+002 -0.19404943E+000
  0.11122916E+003 -0.22927742E+002  0.15530963E+000
  0.10580199E+003 -0.21469303E+002  0.42197802E+000
  0.89806388E+002 -0.17920188E+002  0.61684275E+000
  0.66399054E+002 -0.12232605E+002  0.45449875E+000
  0.37163755E+002 -0.48824948E+001  0.12190617E+000
VECTORS Vstr_CP double
 -0.17853241E+002  0.52780548E+001 -0.69000414E+000
 -0.48467365E+002  0.12515221E+002 -0.79843731E+000
 -0.72855085E+002  0.18953909E+002  0.56647373E-001
 -0.89129730E+002  0.22332086E+002  0.17665323E+000
 -0.94135715E+002  0.22456291E+002 -0.12662225E+000
 -0.88712122E+002  0.21076012E+002 -0.30522679E+000
 -0.72676489E+002  0.17720492E+002 -0.50221329E+000
 -0.49259985E+002  0.12053400E+002 -0.28481162E+000
 -0.20078668E+002  0.48150325E+001 -0.72554033E-002
VECTORS Vwnd_CP double
  0.17200000E+002  0.00000000E+000  0.00000000E+000
  0.17200000E+002  0.00000000E+000  0.00000000E+000
  0.17200000E+002  0.00000000E+000  0.00000000E+000
  0.17200000E+002  0.00000000E+000  0.00000000E+000
  0.17200000E+002  0.00000000E+000  0.00000000E+000
  0.17200000E+002  0.00000000E+000  0.00000000E+000
  0.17200000E+002  0.00000000E+000  0.00000000E+000
  0.17200000E+002  0.00000000E+000  0.00000000E+000
  0.17200000E+002  0.00000000E+000  0.00000000E+000
VECTORS Tangent double
  0.87193961E+000 -0.48961202E+000  0.11770559E-002
  0.96958891E+000 -0.24472113E+000 -0.29842069E-002
  0.97399047E+000 -0.22657192E+000 -0.27794127E-002
  0.97392657E+000 -0.22686151E+000 -0.94361799E-003
  0.97141763E+000 -0.23737680E+000 -0.20279809E-003
  0.97234548E+000 -0.23354693E+000 -0.31939429E-003
  0.97345015E+000 -0.22889905E+000 -0.16806523E-003
  0.97241052E+000 -0.23327619E+000  0.71931915E-004
  0.97207733E+000 -0.23460812E+000  0.49698438E-002
VECTORS Normal double
  0.26040700E+000  0.46578642E+000  0.84571343E+000
  0.15797937E+000  0.61651080E+000  0.77133452E+000
  0.16169953E+000  0.68641864E+000  0.70900120E+000
  0.20526522E+000  0.87942625E+000  0.42950630E+000
  0.23736820E+000  0.97138902E+000 -0.77270859E-002
  0.21010539E+000  0.87534487E+000 -0.43546191E+000
  0.16249815E+000  0.69158054E+000 -0.70378314E+000
  0.14926014E+000  0.62195307E+000 -0.76869746E+000
  0.12436276E+000  0.49709459E+000 -0.85873795E+000
VECTORS Orth double
  0.41461972E+000  0.73710453E+000 -0.53363602E+000
  0.18692206E+000  0.74834885E+000 -0.63642293E+000
  0.15873193E+000  0.69100985E+000 -0.70520179E+000
  0.96608605E-001  0.41850129E+000 -0.90306337E+000
 -0.20312268E-002 -0.74580897E-002 -0.99997013E+000
 -0.10198037E+000 -0.42335231E+000 -0.90020710E+000
 -0.16121152E+000 -0.68507050E+000 -0.71041485E+000
 -0.17927407E+000 -0.74750024E+000 -0.63961254E+000
 -0.19899642E+000 -0.83537776E+000 -0.51239089E+000
