# vtk DataFile Version 2.0
BldPointCP.BldA
ASCII
 
DATASET POLYDATA
POINTS 9 double
 -0.11401485E+002 -0.10300499E+001  0.10636851E+003
 -0.27974505E+002 -0.25324752E+001  0.94594854E+002
 -0.41182154E+002 -0.37343657E+001  0.82346765E+002
 -0.50120765E+002 -0.45509285E+001  0.70086959E+002
 -0.53012214E+002 -0.48162837E+001  0.58105146E+002
 -0.50121086E+002 -0.45543195E+001  0.46123897E+002
 -0.41182812E+002 -0.37387186E+001  0.33862756E+002
 -0.27978461E+002 -0.25349495E+001  0.21611929E+002
 -0.11414747E+002 -0.10331209E+001  0.98270217E+001
  
POINT_DATA 9
SCALARS Gamma_LL double
LOOKUP_TABLE default
 -0.17070871E+001
 -0.48098231E+002
 -0.41921468E+002
 -0.41650185E+002
 -0.42941201E+002
 -0.41163127E+002
 -0.41863516E+002
 -0.48362295E+002
 -0.24688323E+002
VECTORS Vind_CP double
  0.90632446E-002 -0.42956086E-001  0.34737589E-002
 -0.10274185E+000 -0.54561311E-003  0.10247143E+000
 -0.99897554E-001 -0.40057641E-002  0.71114661E-001
 -0.14562854E+000 -0.73653276E-002  0.49668791E-001
 -0.18820228E+000 -0.98240901E-002  0.51973203E-004
 -0.14430940E+000 -0.82624366E-002 -0.49063606E-001
 -0.98580658E-001 -0.48870775E-002 -0.70835542E-001
 -0.10596752E+000 -0.36755704E-002 -0.10479990E+000
 -0.40346722E-001 -0.34092174E-002 -0.17613213E-001
VECTORS Vtot_CP double
  0.14609479E+002  0.20500327E+002 -0.74530951E+000
  0.12117298E+002  0.50833110E+002 -0.13323367E+001
  0.95843009E+001  0.75113321E+002 -0.11268150E+001
  0.76496347E+001  0.91612716E+002 -0.80945325E+000
  0.70445169E+001  0.97027988E+002 -0.81262631E+000
  0.77103004E+001  0.91737928E+002 -0.79454073E+000
  0.97904735E+001  0.75268843E+002 -0.38017993E+000
  0.12464278E+002  0.50931526E+002 -0.52972092E-001
  0.15295810E+002  0.20676901E+002 -0.38092365E-002
VECTORS Vstr_CP double
  0.25995847E+001 -0.20543283E+002  0.74878327E+000
  0.49799599E+001 -0.50833656E+002  0.14348081E+001
  0.75158016E+001 -0.75117327E+002  0.11979296E+001
  0.94047367E+001 -0.91620081E+002  0.85912204E+000
  0.99672808E+001 -0.97037812E+002  0.81267829E+000
  0.93453902E+001 -0.91746190E+002  0.74547713E+000
  0.73109458E+001 -0.75273730E+002  0.30934439E+000
  0.46297548E+001 -0.50935202E+002 -0.51827807E-001
  0.18638436E+001 -0.20680310E+002 -0.13803976E-001
VECTORS Vwnd_CP double
  0.17200000E+002  0.00000000E+000  0.00000000E+000
  0.17200000E+002  0.00000000E+000  0.00000000E+000
  0.17200000E+002  0.00000000E+000  0.00000000E+000
  0.17200000E+002  0.00000000E+000  0.00000000E+000
  0.17200000E+002  0.00000000E+000  0.00000000E+000
  0.17200000E+002  0.00000000E+000  0.00000000E+000
  0.17200000E+002  0.00000000E+000  0.00000000E+000
  0.17200000E+002  0.00000000E+000  0.00000000E+000
  0.17200000E+002  0.00000000E+000  0.00000000E+000
VECTORS Tangent double
 -0.77474986E+000  0.63226767E+000 -0.49606162E-003
 -0.92405203E-001  0.99572118E+000  0.78265952E-003
 -0.92823158E-001  0.99568210E+000  0.10068984E-002
 -0.91303498E-001  0.99582304E+000  0.36960715E-003
 -0.90416735E-001  0.99590399E+000 -0.23177118E-003
 -0.89474095E-001  0.99598865E+000 -0.99780528E-003
 -0.88929498E-001  0.99603771E+000 -0.64827857E-003
 -0.89347616E-001  0.99600050E+000 -0.32887563E-004
 -0.89831230E-001  0.99595700E+000  0.13244724E-004
VECTORS Normal double
 -0.40939966E+000 -0.50106011E+000  0.76245045E+000
 -0.64232919E+000 -0.60210187E-001  0.76406017E+000
 -0.70775013E+000 -0.66691730E-001  0.70330788E+000
 -0.89233677E+000 -0.81979950E-001  0.44386302E+000
 -0.99590402E+000 -0.90416718E-001  0.82589956E-004
 -0.89242064E+000 -0.80614874E-001 -0.44394442E+000
 -0.70819370E+000 -0.63687488E-001 -0.70313981E+000
 -0.64271971E+000 -0.57681294E-001 -0.76392686E+000
 -0.50966953E+000 -0.45958672E-001 -0.85914188E+000
VECTORS Orth double
 -0.48182421E+000 -0.59091146E+000 -0.64704642E+000
 -0.76083802E+000 -0.70100410E-001 -0.64514452E+000
 -0.70033822E+000 -0.64570626E-001 -0.71088467E+000
 -0.44203932E+000 -0.40196432E-001 -0.89609457E+000
 -0.61295677E-004 -0.23828936E-003 -0.99999997E+000
  0.44224404E+000  0.38831063E-001 -0.89605377E+000
  0.70039505E+000  0.62070763E-001 -0.71105133E+000
  0.76087343E+000  0.68233906E-001 -0.64530284E+000
  0.85566776E+000  0.77184522E-001 -0.51173746E+000
