# vtk DataFile Version 2.0
Sgmt
ASCII
 
DATASET POLYDATA
POINTS 1530 double
  0.25160700E+000  0.58544289E-001  0.11318095E+003
 -0.19696440E+002 -0.55139970E+001  0.10121957E+003
 -0.33728613E+002 -0.94874991E+001  0.89065598E+002
 -0.45215180E+002 -0.12819599E+002  0.76682257E+002
 -0.50974609E+002 -0.14510984E+002  0.64410181E+002
 -0.50987144E+002 -0.14530521E+002  0.52164162E+002
 -0.45217275E+002 -0.12852017E+002  0.39899302E+002
 -0.33721086E+002 -0.94788225E+001  0.27504910E+002
 -0.19794551E+002 -0.55311795E+001  0.15240871E+002
  0.16967802E-003  0.41090574E-004  0.30001886E+001
 -0.40827617E+001 -0.11495244E+001  0.11311916E+003
 -0.20899663E+002 -0.12689767E+001  0.10121593E+003
 -0.34586697E+002 -0.65118831E+001  0.89065975E+002
 -0.45864216E+002 -0.10451484E+002  0.76671633E+002
 -0.51547588E+002 -0.12329200E+002  0.64403787E+002
 -0.51572704E+002 -0.12306695E+002  0.52170500E+002
 -0.45880935E+002 -0.10337843E+002  0.39900926E+002
 -0.34614934E+002 -0.61718798E+001  0.27510215E+002
 -0.20981859E+002 -0.11906391E+001  0.15243699E+002
 -0.12001212E+001  0.43370089E+001  0.30036397E+001
 -0.39315435E+001 -0.10784977E+001  0.11313388E+003
 -0.20758245E+002 -0.88814100E+000  0.10124314E+003
 -0.34545668E+002 -0.58852628E+001  0.89084313E+002
 -0.45890433E+002 -0.96233464E+001  0.76682358E+002
 -0.51606770E+002 -0.11398748E+002  0.64406843E+002
 -0.51631968E+002 -0.11375844E+002  0.52167635E+002
 -0.45901723E+002 -0.95097359E+001  0.39892925E+002
 -0.34565093E+002 -0.55457902E+001  0.27494464E+002
 -0.20841058E+002 -0.80896476E+000  0.15232722E+002
 -0.95281407E+000  0.43577176E+001  0.30035330E+001
 -0.38102046E+001 -0.10094892E+001  0.11313539E+003
 -0.20620837E+002 -0.50214537E+000  0.10124159E+003
 -0.34494070E+002 -0.52378956E+001  0.89056105E+002
 -0.45932882E+002 -0.87609150E+001  0.76664378E+002
 -0.51701861E+002 -0.10425397E+002  0.64385740E+002
 -0.51721922E+002 -0.10400084E+002  0.52138289E+002
 -0.45943622E+002 -0.86464811E+001  0.39860088E+002
 -0.34512917E+002 -0.49039694E+001  0.27472161E+002
 -0.20693020E+002 -0.42246465E+000  0.15228559E+002
 -0.70446772E+000  0.43765419E+001  0.30077584E+001
 -0.36862557E+001 -0.93951588E+000  0.11311747E+003
 -0.20474111E+002 -0.11674747E+000  0.10122630E+003
 -0.34428378E+002 -0.45899344E+001  0.89027382E+002
 -0.45962075E+002 -0.78958602E+001  0.76649930E+002
 -0.51781479E+002 -0.94486207E+001  0.64367164E+002
 -0.51797966E+002 -0.94209849E+001  0.52108636E+002
 -0.45971637E+002 -0.77799885E+001  0.39826537E+002
 -0.34446815E+002 -0.42603835E+001  0.27452136E+002
 -0.20535946E+002 -0.36557688E-001  0.15223868E+002
 -0.45598219E+000  0.43938023E+001  0.30115600E+001
 -0.35598675E+001 -0.86880172E+000  0.11311865E+003
 -0.20316250E+002  0.26682915E+000  0.10122341E+003
 -0.34347415E+002 -0.39420010E+001  0.88997902E+002
 -0.45973878E+002 -0.70287718E+001  0.76636913E+002
 -0.51841826E+002 -0.84689803E+001  0.64349887E+002
 -0.51855270E+002 -0.84390718E+001  0.52080370E+002
 -0.45982066E+002 -0.69109482E+001  0.39794304E+002
 -0.34369216E+002 -0.36161923E+001  0.27432125E+002
 -0.20369563E+002  0.34837172E+000  0.15219427E+002
 -0.20744667E+000  0.44091609E+001  0.30194698E+001
 -0.34306209E+001 -0.79758848E+000  0.11311940E+003
 -0.20149897E+002  0.65008931E+000  0.10120796E+003
 -0.34255673E+002 -0.32950268E+001  0.88971743E+002
 -0.45965202E+002 -0.61603308E+001  0.76623686E+002
 -0.51881104E+002 -0.74869917E+001  0.64334484E+002
 -0.51891835E+002 -0.74549066E+001  0.52053354E+002
 -0.45971646E+002 -0.60401237E+001  0.39765481E+002
 -0.34274991E+002 -0.29714560E+001  0.27417608E+002
 -0.20193995E+002  0.73222259E+000  0.15217083E+002
  0.41119556E-001  0.44227701E+001  0.30280592E+001
 -0.32984015E+001 -0.72541827E+000  0.11311980E+003
 -0.19973056E+002  0.10313107E+001  0.10119423E+003
 -0.34145990E+002 -0.26492624E+001  0.88942532E+002
 -0.45928931E+002 -0.52919515E+001  0.76606416E+002
 -0.51889788E+002 -0.65038606E+001  0.64318309E+002
 -0.51900502E+002 -0.64694437E+001  0.52029113E+002
 -0.45937229E+002 -0.51684218E+001  0.39741766E+002
 -0.34163716E+002 -0.23266764E+001  0.27407850E+002
 -0.20009509E+002  0.11150109E+001  0.15215321E+002
  0.28978113E+000  0.44345843E+001  0.30336152E+001
 -0.31629419E+001 -0.65207065E+000  0.11312020E+003
 -0.19785176E+002  0.14104547E+001  0.10117792E+003
 -0.34019246E+002 -0.20049029E+001  0.88911235E+002
 -0.45875513E+002 -0.44241947E+001  0.76593684E+002
 -0.51865216E+002 -0.55206298E+001  0.64302381E+002
 -0.51874393E+002 -0.54841448E+001  0.52008945E+002
 -0.45881767E+002 -0.42974688E+001  0.39719223E+002
 -0.34031435E+002 -0.16821311E+001  0.27407690E+002
 -0.19815649E+002  0.14962157E+001  0.15215651E+002
  0.53873072E+000  0.44448621E+001  0.30375799E+001
 -0.30240427E+001 -0.57676738E+000  0.11312005E+003
 -0.19589593E+002  0.17880444E+001  0.10113913E+003
 -0.33874860E+002 -0.13625455E+001  0.88878028E+002
 -0.45797372E+002 -0.35580810E+001  0.76578522E+002
 -0.51800595E+002 -0.45392917E+001  0.64284941E+002
 -0.51808708E+002 -0.45008282E+001  0.51994260E+002
 -0.45800429E+002 -0.34280553E+001  0.39703453E+002
 -0.33880982E+002 -0.10393258E+001  0.27412888E+002
 -0.19616610E+002  0.18753572E+001  0.15211658E+002
  0.78814252E+000  0.44537931E+001  0.30419018E+001
 -0.28813527E+001 -0.50029243E+000  0.11312240E+003
 -0.19400814E+002  0.21644127E+001  0.10111695E+003
 -0.33709130E+002 -0.72239735E+000  0.88838611E+002
 -0.45690831E+002 -0.26938818E+001  0.76559058E+002
 -0.51701912E+002 -0.35615698E+001  0.64268746E+002
 -0.51708595E+002 -0.35213089E+001  0.51982527E+002
 -0.45691417E+002 -0.25605963E+001  0.39695592E+002
 -0.33714296E+002 -0.39825335E+000  0.27423545E+002
 -0.19416119E+002  0.22532006E+001  0.15200202E+002
  0.10381407E+001  0.44615327E+001  0.30455023E+001
 -0.27345754E+001 -0.42270681E+000  0.11312368E+003
 -0.19186554E+002  0.25393061E+001  0.10106340E+003
 -0.33527929E+002 -0.84845283E-001  0.88799495E+002
 -0.45556838E+002 -0.18324008E+001  0.76536450E+002
 -0.51566297E+002 -0.25883572E+001  0.64251533E+002
 -0.51575082E+002 -0.25465557E+001  0.51976264E+002
 -0.45549872E+002 -0.16959427E+001  0.39700525E+002
 -0.33531817E+002  0.24061202E+000  0.27437618E+002
 -0.19195920E+002  0.26304784E+001  0.15208315E+002
  0.12887752E+001  0.44677280E+001  0.30493066E+001
 -0.25834693E+001 -0.34410216E+000  0.11312520E+003
 -0.18963305E+002  0.29126081E+001  0.10101949E+003
 -0.33332856E+002  0.55035675E+000  0.88762950E+002
 -0.45392399E+002 -0.97416333E+000  0.76506122E+002
 -0.51406942E+002 -0.16198994E+001  0.64234820E+002
 -0.51410681E+002 -0.15767846E+001  0.51974793E+002
 -0.45385465E+002 -0.83478616E+000  0.39710886E+002
 -0.33335391E+002  0.87724437E+000  0.27454930E+002
 -0.18968338E+002  0.30059303E+001  0.15217242E+002
  0.15403292E+001  0.44734386E+001  0.30516727E+001
 -0.24278751E+001 -0.26456456E+000  0.11312651E+003
 -0.18733124E+002  0.32858651E+001  0.10097932E+003
 -0.33125222E+002  0.11832615E+001  0.88729667E+002
 -0.45208648E+002 -0.11906265E+000  0.76477388E+002
 -0.51223634E+002 -0.65510723E+000  0.64219747E+002
 -0.51225999E+002 -0.61115706E+000  0.51976333E+002
 -0.45202473E+002  0.22845613E-001  0.39724248E+002
 -0.33126416E+002  0.15115819E+001  0.27473009E+002
 -0.18734325E+002  0.33801449E+001  0.15224016E+002
  0.17920579E+001  0.44778171E+001  0.30543499E+001
 -0.22675074E+001 -0.18437101E+000  0.11312687E+003
 -0.18493674E+002  0.36568991E+001  0.10094393E+003
 -0.32905526E+002  0.18138815E+001  0.88701501E+002
 -0.45004705E+002  0.73270570E+000  0.76451010E+002
 -0.51027132E+002  0.30679057E+000  0.64208352E+002
 -0.51028354E+002  0.35109494E+000  0.51979570E+002
 -0.45000564E+002  0.87682028E+000  0.39740408E+002
 -0.32906336E+002  0.21435441E+001  0.27490345E+002
 -0.18492458E+002  0.37518725E+001  0.15225645E+002
  0.20439239E+001  0.44807431E+001  0.30576767E+001
 -0.21020626E+001 -0.10370497E+000  0.11312616E+003
 -0.18249047E+002  0.40265495E+001  0.10089916E+003
 -0.32678478E+002  0.24427082E+001  0.88682075E+002
 -0.44788102E+002  0.15815828E+001  0.76431076E+002
 -0.50812327E+002  0.12654485E+001  0.64198965E+002
 -0.50813294E+002  0.13097512E+001  0.51985496E+002
 -0.44785690E+002  0.17271927E+001  0.39755465E+002
 -0.32692844E+002  0.27753392E+001  0.27488327E+002
 -0.18244714E+002  0.41221714E+001  0.15237525E+002
  0.22957352E+001  0.44826723E+001  0.30597404E+001
 -0.19324680E+001 -0.22907896E-001  0.11312488E+003
 -0.17997160E+002  0.43962366E+001  0.10087532E+003
 -0.32459854E+002  0.30731191E+001  0.88686846E+002
 -0.44561467E+002  0.24287154E+001  0.76416995E+002
 -0.50591662E+002  0.22226163E+001  0.64193859E+002
 -0.50591482E+002  0.22667014E+001  0.51989963E+002
 -0.44558806E+002  0.25748222E+001  0.39767678E+002
 -0.32461062E+002  0.34043301E+001  0.27491615E+002
 -0.17990165E+002  0.44907265E+001  0.15244481E+002
  0.25474066E+001  0.44832397E+001  0.30619261E+001
  0.25160700E+000  0.58544289E-001  0.11318095E+003
  0.52274570E+001  0.19921707E+002  0.10079175E+003
  0.88137023E+001  0.34095481E+002  0.88717318E+002
  0.11844553E+002  0.45925285E+002  0.76553538E+002
  0.13311184E+002  0.51623704E+002  0.64215045E+002
  0.13309725E+002  0.51536740E+002  0.51951151E+002
  0.11833503E+002  0.45764469E+002  0.39652166E+002
  0.87988031E+001  0.34013777E+002  0.27404753E+002
  0.51496896E+001  0.19896532E+002  0.15263361E+002
  0.16967802E-003  0.41090574E-004  0.30001886E+001
  0.34532928E+001 -0.31035539E+001  0.11319946E+003
  0.94761577E+001  0.18731582E+002  0.10078188E+003
  0.11813355E+002  0.33325682E+002  0.88707784E+002
  0.14229269E+002  0.45340091E+002  0.76550509E+002
  0.15494381E+002  0.51056100E+002  0.64214784E+002
  0.15531686E+002  0.50944107E+002  0.51950706E+002
  0.14354439E+002  0.45126976E+002  0.39651258E+002
  0.12117644E+002  0.33165157E+002  0.27404809E+002
  0.95031366E+001  0.18757454E+002  0.15263897E+002
  0.43560283E+001 -0.11290525E+001  0.30407276E+001
[...]
CELL_DATA 2817
SCALARS Gamma double
LOOKUP_TABLE default
 -0.42537735E+001
  0.42537735E+001
 -0.15882816E+003
  0.15457438E+003
 -0.14302659E+003
 -0.15801561E+002
 -0.11337245E+003
 -0.29654146E+002
 -0.98903979E+002
 -0.14468469E+002
 -0.91358857E+002
 -0.75451216E+001
 -0.10612459E+003
  0.14765729E+002
 -0.14230449E+003
  0.36179907E+002
 -0.62668862E+002
 -0.79635632E+002
 -0.62668862E+002
  0.00000000E+000
  0.42537735E+001
  0.00000000E+000
  0.15457438E+003
  0.00000000E+000
 -0.15801561E+002
  0.00000000E+000
 -0.29654146E+002
  0.00000000E+000
 -0.14468469E+002
  0.00000000E+000
 -0.75451216E+001
  0.00000000E+000
  0.14765729E+002
  0.00000000E+000
  0.36179907E+002
  0.00000000E+000
 -0.79635632E+002
 -0.62668862E+002
 -0.34408316E+000
  0.45978567E+001
 -0.97316584E+000
  0.15520346E+003
 -0.10906938E+001
 -0.15684033E+002
 -0.10288142E+001
 -0.29716026E+002
 -0.10706142E+001
 -0.14426669E+002
 -0.11848115E+001
 -0.74309243E+001
 -0.13444472E+001
  0.14925365E+002
 -0.12258985E+001
  0.36061358E+002
 -0.23520654E+001
 -0.78509465E+002
 -0.65020927E+002
 -0.13068741E+000
  0.47285441E+001
 -0.65029999E+000
  0.15572308E+003
 -0.74135204E-001
 -0.16260198E+002
 -0.23141768E+001
 -0.27475984E+002
 -0.50345155E+001
 -0.11706331E+002
 -0.51552368E+001
 -0.73102029E+001
 -0.42361870E+001
  0.14006315E+002
 -0.22305834E+001
  0.34055755E+002
 -0.21797801E+001
 -0.78560268E+002
 -0.67200707E+002
 -0.13745155E+000
  0.48659957E+001
 -0.55263701E+000
  0.15613826E+003
  0.70155900E-001
 -0.16882991E+002
 -0.23672779E+001
 -0.25038550E+002
 -0.51899116E+001
 -0.88836971E+001
 -0.51982565E+001
 -0.73018580E+001
 -0.39157700E+001
  0.12723829E+002
 -0.21037404E+001
  0.32243725E+002
 -0.22148052E+001
 -0.78449203E+002
 -0.69415513E+002
 -0.14351985E+000
  0.50095155E+001
 -0.44288301E+000
  0.15643763E+003
  0.19745549E+000
 -0.17523329E+002
 -0.24051006E+001
 -0.22435994E+002
 -0.49591754E+001
 -0.63296223E+001
 -0.52127925E+001
 -0.70482410E+001
 -0.32331920E+001
  0.10744228E+002
 -0.20389841E+001
  0.31049517E+002
 -0.22450642E+001
 -0.78243123E+002
 -0.71660577E+002
 -0.13997529E+000
  0.51494908E+001
 -0.92830764E-001
  0.15639048E+003
  0.52297140E+000
 -0.18139131E+002
 -0.23503403E+001
 -0.19562683E+002
 -0.39115262E+001
 -0.47684364E+001
 -0.50048418E+001
 -0.59549254E+001
 -0.29758320E+001
  0.87152186E+001
 -0.17509083E+001
  0.29824593E+002
 -0.21431196E+001
 -0.77850912E+002
 -0.73803696E+002
  0.14837073E-001
  0.51346537E+001
  0.48806848E+001
  0.15152463E+003
  0.49326920E+001
 -0.18191138E+002
  0.12062066E+001
 -0.15836197E+002
 -0.13701543E+000
 -0.34252144E+001
 -0.79400306E+000
 -0.52979378E+001
  0.88270414E+000
  0.70385114E+001
  0.29489499E+001
  0.27758347E+002
  0.14956181E+000
 -0.75051524E+002
 -0.73654135E+002
  0.47592712E+000
  0.46587266E+001
  0.18303795E+002
  0.13369677E+003
  0.16748446E+002
 -0.16635789E+002
  0.12128025E+002
 -0.11215776E+002
  0.10640676E+002
 -0.19378658E+001
  0.10099609E+002
 -0.47568714E+001
  0.11731022E+002
  0.54070988E+001
  0.15972660E+002
  0.23516710E+002
  0.67350539E+001
 -0.65813918E+002
 -0.66919081E+002
  0.83211125E+000
  0.38266154E+001
  0.27867914E+002
  0.10666096E+003
  0.24918373E+002
 -0.13686248E+002
  0.20471167E+002
 -0.67685699E+001
  0.18877183E+002
 -0.34388132E+000
  0.18315604E+002
 -0.41952929E+001
  0.19841319E+002
  0.38813838E+001
  0.25575396E+002
  0.17782634E+002
  0.12482756E+002
 -0.52721278E+002
 -0.54436325E+002
  0.99235881E+000
  0.28342566E+001
  0.31099255E+002
  0.76554066E+002
  0.27415886E+002
 -0.10002878E+002
  0.23975277E+002
 -0.33279609E+001
  0.23038709E+002
  0.59268608E+000
  0.22064967E+002
 -0.32215504E+001
  0.23517145E+002
  0.24292057E+001
  0.29201645E+002
  0.12098133E+002
  0.14721714E+002
 -0.38241348E+002
 -0.39714610E+002
  0.10427003E+001
  0.17915563E+001
  0.30769127E+002
  0.46827639E+002
  0.26983230E+002
 -0.62169816E+001
  0.24776825E+002
 -0.11215561E+001
  0.24504431E+002
  0.86508056E+000
  0.23208485E+002
 -0.19256050E+001
  0.24544431E+002
  0.10932602E+001
  0.29638113E+002
  0.70044515E+001
  0.14999923E+002
 -0.23603158E+002
 -0.24714688E+002
  0.97299534E+000
  0.81856091E+000
  0.27077488E+002
  0.20723147E+002
  0.23657597E+002
 -0.27970910E+001
  0.22649332E+002
 -0.11329133E+000
  0.22929610E+002
  0.58480337E+000
  0.21802107E+002
 -0.79810264E+000
  0.22590109E+002
  0.30525857E+000
  0.26662817E+002
  0.29317436E+001
  0.13579584E+002
 -0.10519925E+002
 -0.11135103E+002
  0.64872544E+000
  0.16983547E+000
  0.17225887E+002
  0.41459856E+001
  0.14985761E+002
 -0.55696483E+000
  0.14823631E+002
  0.48838483E-001
  0.15253043E+002
  0.15539132E+000
  0.14596251E+002
 -0.14131106E+000
  0.14877618E+002
  0.23892066E-001
  0.17257262E+002
  0.55209979E+000
  0.88586096E+001
 -0.21212729E+001
 -0.22764939E+001
  0.16779964E+000
  0.20358333E-002
  0.42656912E+001
  0.48093971E-001
  0.37150864E+001
 -0.63599538E-002
  0.37625785E+001
  0.13463489E-002
  0.39157448E+001
  0.22250323E-002
  0.37758405E+001
 -0.14067937E-002
  0.37998844E+001
 -0.15175484E-003
  0.43459621E+001
  0.60219938E-002
  0.22494345E+001
 -0.24745317E-001
 -0.27059359E-001
  0.20358333E-002
  0.00000000E+000
  0.00000000E+000
  0.50129804E-001
 -0.00000000E+000
  0.00000000E+000
  0.43769850E-001
 -0.00000000E+000
  0.00000000E+000
  0.45116199E-001
 -0.00000000E+000
  0.00000000E+000
  0.47341231E-001
 -0.00000000E+000
  0.00000000E+000
  0.45934438E-001
 -0.00000000E+000
  0.00000000E+000
  0.45782683E-001
 -0.00000000E+000
  0.00000000E+000
  0.51804677E-001
 -0.00000000E+000
  0.00000000E+000
  0.27059359E-001
 -0.00000000E+000
  0.00000000E+000
 -0.00000000E+000
  0.11001858E+003
 -0.11001858E+003
  0.48353335E+002
  0.61665246E+002
  0.16722724E+002
  0.31630611E+002
  0.20917772E+002
 -0.41950477E+001
  0.42321775E+002
 -0.21404003E+002
  0.36009231E+002
  0.63125436E+001
  0.24257075E+002
  0.11752157E+002
  0.34909828E+002
 -0.10652754E+002
  0.42537994E+002
 -0.76281653E+001
  0.42537994E+002
  0.00000000E+000
 -0.11001858E+003
  0.00000000E+000
  0.61665246E+002
  0.00000000E+000
  0.31630611E+002
  0.00000000E+000
 -0.41950477E+001
  0.00000000E+000
 -0.21404003E+002
  0.00000000E+000
  0.63125436E+001
  0.00000000E+000
  0.11752157E+002
  0.00000000E+000
 -0.10652754E+002
  0.00000000E+000
 -0.76281653E+001
  0.42537994E+002
  0.11091425E+001
 -0.11112772E+003
  0.30447722E+001
  0.59729616E+002
  0.24570780E+001
  0.32218305E+002
  0.25344108E+001
 -0.42723805E+001
  0.25974276E+001
 -0.21467020E+002
  0.26838121E+001
  0.62261591E+001
  0.27676204E+001
  0.11668348E+002
  0.31950913E+001
 -0.11080225E+002
  0.28635100E+001
 -0.72965839E+001
  0.45401503E+002
  0.13129184E+001
 -0.11244064E+003
  0.10064808E+001
  0.60036054E+002
  0.37671376E+000
  0.32848072E+002
  0.24961762E+001
 -0.63918429E+001
  0.30924531E+001
 -0.22063297E+002
  0.26212969E+001
  0.66973153E+001
  0.18018780E+001
  0.12487767E+002
  0.25279887E+001
 -0.11806335E+002
  0.26814057E+001
 -0.74500009E+001
  0.48082909E+002
  0.12841358E+001
 -0.11372478E+003
  0.10218390E+001
  0.60298351E+002
  0.66857243E+000
  0.33201339E+002
  0.27242815E+001
 -0.84475520E+001
  0.31058736E+001
 -0.22444889E+002
  0.26295671E+001
  0.71736217E+001
  0.19304997E+001
  0.13186835E+002
  0.26616870E+001
 -0.12537523E+002
  0.26972408E+001
 -0.74855547E+001
  0.50780150E+002
  0.11519653E+001
 -0.11487674E+003
  0.10830052E+001
  0.60367311E+002
  0.10138338E+001
  0.33270510E+002
  0.29061155E+001
 -0.10339834E+002
  0.30168516E+001
 -0.22555625E+002
  0.25732902E+001
  0.76171830E+001
  0.20742879E+001
  0.13685837E+002
  0.28322246E+001
 -0.13295459E+002
  0.27283583E+001
 -0.73816885E+001
  0.53508508E+002
  0.62716214E+000
 -0.11550391E+003
  0.10896381E+001
  0.59904835E+002
  0.13834750E+001
  0.32976673E+002
  0.30181911E+001
 -0.11974550E+002
  0.27747242E+001
 -0.22312158E+002
  0.24218867E+001
  0.79700206E+001
  0.21885717E+001
  0.13919152E+002
  0.29364170E+001
 -0.14043304E+002
  0.26655115E+001
 -0.71107830E+001
  0.56174020E+002
 -0.28959937E+001
 -0.11260791E+003
 -0.48009835E+000
  0.57488939E+002
  0.10877219E+001
  0.31408853E+002
  0.19778335E+001
 -0.12864662E+002
  0.71827404E+000
 -0.21052598E+002
  0.73400206E+000
  0.79542925E+001
  0.12293416E+001
  0.13423813E+002
  0.15715189E+001
 -0.14385482E+002
  0.92866735E+000
 -0.64679314E+001
  0.57102687E+002
 -0.12602314E+002
 -0.10000560E+003
 -0.52290479E+001
  0.50115674E+002
 -0.75883078E+000
  0.26938636E+002
 -0.15209807E+001
 -0.12102512E+002
 -0.48403114E+001
 -0.17733268E+002
 -0.39698689E+001
  0.70838501E+001
 -0.20334040E+001
  0.11487348E+002
 -0.30433522E+001
 -0.13375534E+002
 -0.43170140E+001
 -0.51942696E+001
  0.52785673E+002
 -0.19765346E+002
 -0.80240252E+002
 -0.88862138E+001
  0.39236541E+002
 -0.26267096E+001
  0.20679132E+002
 -0.48235155E+001
 -0.99057057E+001
 -0.93638934E+001
 -0.13192890E+002
 -0.78432373E+001
  0.55631940E+001
 -0.49671768E+001
  0.86112870E+001
 -0.71011572E+001
 -0.11241553E+002
 -0.86556926E+001
 -0.36397342E+001
  0.44129981E+002
 -0.22240400E+002
 -0.57999852E+002
 -0.10510455E+002
  0.27506596E+002
 -0.39498849E+001
  0.14118562E+002
 -0.68456066E+001
 -0.70099840E+001
 -0.11448451E+002
 -0.85900453E+001
 -0.96926403E+001
  0.38073832E+001
 -0.66721349E+001
  0.55907816E+001
 -0.94491412E+001
 -0.84645468E+001
 -0.10904937E+002
 -0.21839384E+001
  0.33225043E+002
 -0.22238158E+002
 -0.35761694E+002
 -0.11071798E+002
  0.16340236E+002
 -0.50772428E+001
  0.81240071E+001
 -0.80530541E+001
 -0.40341727E+001
 -0.12045193E+002
 -0.45979064E+001
 -0.10367287E+002
  0.21294770E+001
 -0.77188607E+001
  0.29423555E+001
 -0.10764720E+002
 -0.54186876E+001
 -0.11897044E+002
 -0.10516144E+001
  0.21328000E+002
 -0.19801747E+002
 -0.15959946E+002
 -0.10431548E+002
  0.69700364E+001
 -0.56400549E+001
  0.33325139E+001
 -0.81041948E+001
 -0.15700328E+001
 -0.11011162E+002
 -0.16909396E+001
 -0.96864267E+001
  0.80474206E+000
 -0.77734533E+001
  0.10293821E+001
 -0.10713530E+002
 -0.24786105E+001
 -0.11444404E+002
 -0.32074043E+000
  0.98835952E+001
 -0.12734296E+002
 -0.32256505E+001
 -0.70919756E+001
  0.13277161E+001
 -0.43707978E+001
  0.61133605E+000
 -0.56838027E+001
 -0.25702784E+000
 -0.71110926E+001
 -0.26364967E+000
 -0.64318326E+001
  0.12548201E+000
 -0.55503317E+001
  0.14788120E+000
 -0.75239556E+001
 -0.50498659E+000
 -0.78048641E+001
 -0.39831881E-001
  0.20787311E+001
 -0.31878192E+001
 -0.37831218E-001
 -0.18745597E+001
  0.14456477E-001
 -0.12697514E+001
  0.65277625E-002
 -0.15248765E+001
 -0.19027177E-002
 -0.17864326E+001
 -0.20935815E-002
 -0.16619089E+001
  0.95830135E-003
 -0.15148379E+001
  0.81028700E-003
 -0.20138719E+001
 -0.59526030E-002
 -0.20534908E+001
 -0.21301071E-003
  0.25240302E-001
 -0.37831218E-001
 -0.00000000E+000
 -0.00000000E+000
 -0.23374740E-001
 -0.00000000E+000
 -0.00000000E+000
 -0.16846978E-001
 -0.00000000E+000
 -0.00000000E+000
 -0.18749696E-001
 -0.00000000E+000
 -0.00000000E+000
 -0.20843277E-001
 -0.00000000E+000
 -0.00000000E+000
 -0.19884976E-001
 -0.00000000E+000
 -0.00000000E+000
 -0.19074689E-001
 -0.00000000E+000
 -0.00000000E+000
 -0.25027292E-001
 -0.00000000E+000
 -0.00000000E+000
 -0.25240302E-001
 -0.00000000E+000
 -0.00000000E+000
  0.00000000E+000
  0.57203613E+002
 -0.57203613E+002
  0.10478180E+003
 -0.47578184E+002
  0.78622191E+002
  0.26159606E+002
  0.90574613E+002
 -0.11952422E+002
  0.10352873E+003
 -0.12954120E+002
  0.10341252E+003
  0.11621834E+000
  0.95303967E+002
  0.81085484E+001
  0.10940618E+003
 -0.14102214E+002
  0.31849398E+002
  0.77556782E+002
  0.31849398E+002
  0.00000000E+000
 -0.57203613E+002
  0.00000000E+000
 -0.47578184E+002
  0.00000000E+000
  0.26159606E+002
  0.00000000E+000
 -0.11952422E+002
  0.00000000E+000
 -0.12954120E+002
  0.00000000E+000
  0.11621834E+000
  0.00000000E+000
  0.81085484E+001
  0.00000000E+000
 -0.14102214E+002
  0.00000000E+000
  0.77556782E+002
  0.31849398E+002
 -0.12076878E+001
 -0.55995925E+002
 -0.15984028E+001
 -0.47187469E+002
 -0.14699720E+001
  0.26031175E+002
 -0.14223671E+001
 -0.12000027E+002
 -0.11223950E+001
 -0.13254092E+002
 -0.11429766E+001
  0.13679992E+000
 -0.14826187E+001
  0.84481906E+001
 -0.16484957E+001
 -0.13936337E+002
 -0.62575471E+000
  0.76534041E+002
  0.31223643E+002
 -0.14206875E+001
 -0.54575238E+002
 -0.18193734E+001
 -0.46788783E+002
 -0.23913858E+001
  0.26603187E+002
 -0.16298284E+001
 -0.12761584E+002
 -0.63926223E+000
 -0.14244659E+002
 -0.12668876E+001
  0.76442524E+000
 -0.19921328E+001
  0.91734358E+001
 -0.17087849E+001
 -0.14219684E+002
 -0.60742859E+000
  0.75432685E+002
  0.30616215E+002
 -0.14506000E+001
 -0.53124638E+002
 -0.18184543E+001
 -0.46420929E+002
 -0.22574240E+001
  0.27042157E+002
 -0.15816356E+001
 -0.13437372E+002
 -0.74850386E+000
 -0.15077790E+002
 -0.15677516E+001
  0.15836730E+001
 -0.19600528E+001
  0.95657370E+001
 -0.16559344E+001
 -0.14523803E+002
 -0.60607043E+000
  0.74382821E+002
  0.30010144E+002
 -0.14771720E+001
 -0.51647466E+002
 -0.18073547E+001
 -0.46090746E+002
 -0.20989389E+001
  0.27333741E+002
 -0.15466766E+001
 -0.13989635E+002
 -0.88625950E+000
 -0.15738207E+002
 -0.17799275E+001
  0.24773410E+001
 -0.19260392E+001
  0.97118486E+001
 -0.15893747E+001
 -0.14860467E+002
 -0.60316145E+000
  0.73396608E+002
  0.29406983E+002
 -0.15138546E+001
 -0.50133611E+002
 -0.19359266E+001
 -0.45668674E+002
 -0.20075771E+001
  0.27405391E+002
 -0.16190547E+001
 -0.14378157E+002
 -0.11653775E+001
 -0.16191885E+002
 -0.20317160E+001
  0.33436796E+001
 -0.20053873E+001
  0.96855198E+001
 -0.16678422E+001
 -0.15198012E+002
 -0.64603767E+000
  0.72374803E+002
  0.28760945E+002
 -0.30068415E+001
 -0.47126770E+002
 -0.47207272E+001
 -0.43954788E+002
 -0.37978442E+001
  0.26482508E+002
 -0.40482626E+001
 -0.14127739E+002
 -0.43459059E+001
 -0.15894241E+002
 -0.49767692E+001
  0.39745430E+001
 -0.44853409E+001
  0.91940915E+001
 -0.45649217E+001
 -0.15118432E+002
 -0.14880132E+001
  0.69297894E+002
  0.27272932E+002
 -0.68188349E+001
 -0.40307935E+002
 -0.12197779E+002
 -0.38575845E+002
 -0.88416361E+001
  0.23126366E+002
 -0.10544737E+002
 -0.12424638E+002
 -0.12610496E+002
 -0.13828482E+002
 -0.12536655E+002
  0.39007012E+001
 -0.11121388E+002
  0.77788247E+001
 -0.12527415E+002
 -0.13712404E+002
 -0.37148458E+001
  0.60485325E+002
  0.23558086E+002
 -0.91277294E+001
 -0.31180205E+002
 -0.17022088E+002
 -0.30681486E+002
 -0.12027814E+002
  0.18132092E+002
 -0.14779134E+002
 -0.96733181E+001
 -0.17931352E+002
 -0.10676264E+002
 -0.17347197E+002
  0.33165460E+001
 -0.15364989E+002
  0.57966173E+001
 -0.17791989E+002
 -0.11285405E+002
 -0.51326887E+001
  0.47826025E+002
  0.18425397E+002
 -0.94285308E+001
 -0.21751674E+002
 -0.18113224E+002
 -0.21996792E+002
 -0.12637587E+002
  0.12656455E+002
 -0.15700499E+002
 -0.66104064E+001
 -0.19124492E+002
 -0.72522709E+001
 -0.18240085E+002
  0.24321392E+001
 -0.16208555E+002
  0.37650876E+001
 -0.19134557E+002
 -0.83594026E+001
 -0.54301888E+001
  0.34121657E+002
  0.12995209E+002
 -0.88111280E+001
 -0.12940546E+002
 -0.17364621E+002
 -0.13443300E+002
 -0.12134860E+002
  0.74266936E+001
 -0.15020160E+002
 -0.37251056E+001
 -0.18202912E+002
 -0.40695191E+001
 -0.17222675E+002
  0.14519017E+001
 -0.15451635E+002
  0.19940483E+001
 -0.18533877E+002
 -0.52771613E+001
 -0.51786026E+001
  0.20766383E+002
  0.78166061E+001
 -0.73888130E+001
 -0.55517334E+001
 -0.14859403E+002
 -0.59727103E+001
 -0.10531808E+002
  0.30990986E+001
 -0.12815353E+002
 -0.14415602E+001
 -0.15308397E+002
 -0.15764755E+001
 -0.14442329E+002
  0.58583389E+000
 -0.13152417E+002
  0.70413672E+000
 -0.16048524E+002
 -0.23810543E+001
 -0.44178333E+001
  0.91356917E+001
  0.33987728E+001
 -0.44720828E+001
 -0.10796506E+001
 -0.92379513E+001
 -0.12068418E+001
 -0.67130300E+001
  0.57417728E+000
 -0.79160876E+001
 -0.23850265E+000
 -0.92326540E+001
 -0.25990912E+000
 -0.87457936E+001
  0.98973503E-001
 -0.81446344E+001
  0.10297754E+000
 -0.10049450E+002
 -0.47623825E+000
 -0.27284752E+001
  0.18147164E+001
  0.67029763E+000
 -0.10674822E+001
 -0.12168383E-001
 -0.22601309E+001
 -0.14193089E-001
 -0.16920466E+001
  0.60929708E-002
 -0.19286953E+001
 -0.18539712E-002
 -0.21864031E+001
 -0.22012529E-002
 -0.20882739E+001
  0.84422521E-003
 -0.19858451E+001
  0.54879671E-003
 -0.24566168E+001
 -0.54665826E-002
 -0.66265053E+000
  0.20750192E-001
  0.76470951E-002
 -0.12168383E-001
 -0.00000000E+000
 -0.00000000E+000
 -0.26361473E-001
 -0.00000000E+000
 -0.00000000E+000
 -0.20268502E-001
 -0.00000000E+000
 -0.00000000E+000
 -0.22122473E-001
 -0.00000000E+000
 -0.00000000E+000
 -0.24323726E-001
 -0.00000000E+000
 -0.00000000E+000
 -0.23479501E-001
 -0.00000000E+000
 -0.00000000E+000
 -0.22930704E-001
 -0.00000000E+000
 -0.00000000E+000
 -0.28397287E-001
 -0.00000000E+000
 -0.00000000E+000
 -0.76470951E-002
 -0.00000000E+000
 -0.00000000E+000
  0.00000000E+000
  0.51639337E+001
 -0.51639337E+001
  0.53263674E+000
  0.46312969E+001
  0.12200211E+001
 -0.68738434E+000
  0.67176731E+000
  0.54825377E+000
 -0.59755550E+000
  0.12693228E+001
 -0.13636726E+001
  0.76611705E+000
 -0.22811478E+001
  0.91747524E+000
 -0.31283038E+001
  0.84715598E+000
 -0.47924823E+001
  0.16641785E+001
 -0.47924823E+001
  0.00000000E+000
 -0.51639337E+001
  0.00000000E+000
  0.46312969E+001
  0.00000000E+000
 -0.68738434E+000
  0.00000000E+000
  0.54825377E+000
  0.00000000E+000
  0.12693228E+001
  0.00000000E+000
  0.76611705E+000
  0.00000000E+000
  0.91747524E+000
  0.00000000E+000
  0.84715598E+000
  0.00000000E+000
  0.16641785E+001
 -0.47924823E+001
 -0.90393107E+000
 -0.42600026E+001
  0.51176278E+000
  0.32156031E+001
 -0.10726110E+000
 -0.68360456E-001
  0.85952622E-001
  0.35504005E+000
  0.47525559E-001
  0.13077499E+001
  0.76611784E-001
  0.73703083E+000
  0.10544575E+000
  0.88864127E+000
  0.12658850E+000
  0.82601322E+000
  0.16333415E+000
  0.16274328E+001
 -0.46291481E+001
 -0.83864278E+000
 -0.34213598E+001
  0.55353453E+000
  0.18234258E+001
 -0.95175572E-001
  0.58034965E+000
  0.31375630E-001
  0.22848885E+000
  0.58199136E-001
  0.12809264E+001
  0.97632057E-001
  0.69759791E+000
  0.15742265E+000
  0.82885068E+000
  0.21426839E+000
  0.76916748E+000
  0.28616973E+000
  0.15555315E+001
 -0.43429784E+001
 -0.66033936E+000
 -0.27610205E+001
  0.53374550E+000
  0.62934091E+000
 -0.81103740E-001
  0.11951989E+001
  0.21675721E-001
  0.12570938E+000
  0.49886267E-001
  0.12527158E+001
  0.87868862E-001
  0.65961531E+000
  0.14875498E+000
  0.76796456E+000
  0.20935904E+000
  0.70856343E+000
  0.28581897E+000
  0.14790716E+001
 -0.40571594E+001
 -0.56966877E+000
 -0.21913517E+001
  0.50327048E+000
 -0.44359834E+000
 -0.61338668E-001
  0.17598080E+001
  0.83262807E-002
  0.56044436E-001
  0.41607729E-001
  0.12194344E+001
  0.78239846E-001
  0.62298320E+000
  0.14002840E+000
  0.70617601E+000
  0.20317185E+000
  0.64541997E+000
  0.28336507E+000
  0.13988783E+001
 -0.37737943E+001
 -0.31499761E+000
 -0.18763541E+001
  0.41640248E+000
 -0.11749984E+001
 -0.24159889E-001
  0.22003704E+001
 -0.67634145E-002
  0.38647962E-001
  0.38102358E-001
  0.11745686E+001
  0.73807161E-001
  0.58727839E+000
  0.13787923E+000
  0.64210394E+000
  0.20458412E+000
  0.57871509E+000
  0.29232950E+000
  0.13111330E+001
 -0.34814648E+001
 -0.24670707E+000
 -0.16296470E+001
  0.17395061E+000
 -0.15956561E+001
 -0.41926253E-001
  0.24162473E+001
 -0.63482724E-001
  0.60204433E-001
  0.32319316E-001
  0.10787666E+001
  0.87746644E-001
  0.53185107E+000
  0.17351125E+000
  0.55633933E+000
  0.25865135E+000
  0.49357499E+000
  0.39225920E+000
  0.11775251E+001
 -0.30892056E+001
 -0.10570517E+001
 -0.57259528E+000
 -0.35038312E+000
 -0.23023247E+001
 -0.20086932E+000
  0.22667335E+001
 -0.18880066E+000
  0.48135774E-001
  0.17671221E-001
  0.87229468E+000
  0.12194670E+000
  0.42757559E+000
  0.24948669E+000
  0.42879934E+000
  0.36975895E+000
  0.37330273E+000