# vtk DataFile Version 2.0
Sgmt
ASCII
 
DATASET POLYDATA
POINTS 360 double
  0.84396906E-003  0.15477816E-003  0.11318284E+003
 -0.20537702E+002 -0.74019468E+000  0.10094118E+003
 -0.35021582E+002 -0.12623900E+001  0.88698753E+002
 -0.47151787E+002 -0.16999691E+001  0.76455696E+002
 -0.53216873E+002 -0.19190089E+001  0.64213100E+002
 -0.53216812E+002 -0.19189758E+001  0.51970677E+002
 -0.47151532E+002 -0.17004156E+001  0.39728178E+002
 -0.35021418E+002 -0.12626550E+001  0.27485012E+002
 -0.20537893E+002 -0.74033217E+000  0.15242444E+002
  0.15783294E-004  0.33315204E-005  0.30000098E+001
 -0.44962335E+001 -0.16200106E+000  0.11318273E+003
 -0.20697344E+002  0.36691668E+001  0.10094144E+003
 -0.35134404E+002  0.18324233E+001  0.88699313E+002
 -0.47240977E+002  0.75387979E+000  0.76455982E+002
 -0.53298521E+002  0.33528903E+000  0.64213178E+002
 -0.53299925E+002  0.37915780E+000  0.51970446E+002
 -0.47245010E+002  0.89819540E+000  0.39727666E+002
 -0.35144575E+002  0.21607490E+001  0.27484937E+002
 -0.20699890E+002  0.37567510E+001  0.15242437E+002
 -0.16211808E+000  0.44970816E+001  0.30000040E+001
 -0.43264219E+001 -0.80993894E-001  0.11318273E+003
 -0.20455902E+002  0.40413479E+001  0.10094144E+003
 -0.34923700E+002  0.24649256E+001  0.88699313E+002
 -0.47047736E+002  0.16046064E+001  0.76455982E+002
 -0.53111837E+002  0.12951849E+001  0.64213178E+002
 -0.53112453E+002  0.13390719E+001  0.51970446E+002
 -0.47049167E+002  0.17489713E+001  0.39727666E+002
 -0.34927954E+002  0.27933811E+001  0.27484937E+002
 -0.20456870E+002  0.41289637E+001  0.15242437E+002
  0.90904349E-001  0.44992720E+001  0.30000040E+001
 -0.41560000E+001  0.82663659E-015  0.11318291E+003
 -0.20207200E+002  0.44122505E+001  0.10094036E+003
 -0.34700324E+002  0.30968692E+001  0.88697816E+002
 -0.46839144E+002  0.24554692E+001  0.76455271E+002
 -0.52908554E+002  0.22557761E+001  0.64212725E+002
 -0.52908554E+002  0.22996360E+001  0.51970180E+002
 -0.46839144E+002  0.26002918E+001  0.39727634E+002
 -0.34700324E+002  0.34256185E+001  0.27485089E+002
 -0.20207200E+002  0.45000000E+001  0.15242543E+002
  0.34400000E+000  0.45000000E+001  0.29999979E+001
  0.84396906E-003  0.15477816E-003  0.11318284E+003
  0.96280288E+001  0.18156897E+002  0.10093952E+003
  0.16418703E+002  0.30962586E+002  0.88698587E+002
  0.22105988E+002  0.41687760E+002  0.76456043E+002
  0.24949453E+002  0.47050077E+002  0.64213108E+002
  0.24949389E+002  0.47049976E+002  0.51970046E+002
  0.22105957E+002  0.41687626E+002  0.39727064E+002
  0.16418505E+002  0.30962460E+002  0.27484488E+002
  0.96279721E+001  0.18156668E+002  0.15243298E+002
  0.15783294E-004  0.33315204E-005  0.30000098E+001
  0.23899979E+001 -0.38132352E+001  0.11318291E+003
  0.13525923E+002  0.16089442E+002  0.10093965E+003
  0.19154700E+002  0.29511753E+002  0.88698736E+002
  0.24275377E+002  0.40537507E+002  0.76456093E+002
  0.26942402E+002  0.45993346E+002  0.64213124E+002
  0.26981169E+002  0.45972852E+002  0.51969990E+002
  0.24403393E+002  0.40469715E+002  0.39726955E+002
  0.19444933E+002  0.29357593E+002  0.27484503E+002
  0.13603594E+002  0.16048487E+002  0.15243303E+002
  0.39756667E+001 -0.21081237E+001  0.30003018E+001
  0.24929308E+001 -0.38556625E+001  0.11318291E+003
  0.13985513E+002  0.15843218E+002  0.10093965E+003
  0.19855125E+002  0.29161974E+002  0.88698736E+002
  0.25173554E+002  0.40093714E+002  0.76456093E+002
  0.27938409E+002  0.45500632E+002  0.64213124E+002
  0.27976800E+002  0.45479443E+002  0.51969990E+002
  0.25300328E+002  0.40023629E+002  0.39726955E+002
  0.20142532E+002  0.29002612E+002  0.27484503E+002
  0.14062434E+002  0.15800870E+002  0.15243303E+002
  0.41090528E+001 -0.21793868E+001  0.30003018E+001
  0.25940000E+001 -0.38971143E+001  0.11318291E+003
  0.14440721E+002  0.15591736E+002  0.10094036E+003
  0.20548129E+002  0.28800840E+002  0.88697816E+002
  0.26062071E+002  0.39634067E+002  0.76455271E+002
  0.28923837E+002  0.44990177E+002  0.64212725E+002
  0.28961820E+002  0.44968247E+002  0.51970180E+002
  0.26187491E+002  0.39561656E+002  0.39727634E+002
  0.20832835E+002  0.28636465E+002  0.27485089E+002
  0.14516714E+002  0.15547861E+002  0.15242543E+002
  0.42411143E+001 -0.22500000E+001  0.29999979E+001
  0.84396906E-003  0.15477816E-003  0.11318284E+003
  0.10910134E+002 -0.17416533E+002  0.10093967E+003
  0.18604816E+002 -0.29700173E+002  0.88698482E+002
  0.25049515E+002 -0.39987850E+002  0.76455979E+002
  0.28271717E+002 -0.45131543E+002  0.64213128E+002
  0.28271752E+002 -0.45131612E+002  0.51970097E+002
  0.25049509E+002 -0.39987727E+002  0.39727348E+002
  0.18604793E+002 -0.29699716E+002  0.27484773E+002
  0.10910082E+002 -0.17416375E+002  0.15243236E+002
  0.15783294E-004  0.33315204E-005  0.30000098E+001
 -0.21074162E+001 -0.39754256E+001  0.11318286E+003
  0.71710136E+001 -0.19758954E+002  0.10093988E+003
  0.15980419E+002 -0.31344295E+002  0.88698642E+002
  0.22968647E+002 -0.41291428E+002  0.76456034E+002
  0.26360129E+002 -0.46329189E+002  0.64213152E+002
  0.26323039E+002 -0.46352613E+002  0.51970026E+002
  0.22845883E+002 -0.41368144E+002  0.39727260E+002
  0.15701796E+002 -0.31518361E+002  0.27484770E+002
  0.70965509E+001 -0.19805304E+002  0.15243237E+002
 -0.38135013E+001 -0.23889478E+001  0.29997237E+001
 -0.20066751E+001 -0.39368244E+001  0.11318286E+003
  0.69859750E+001 -0.19884904E+002  0.10093988E+003
  0.15585289E+002 -0.31627030E+002  0.88698642E+002
  0.22393228E+002 -0.41698415E+002  0.76456034E+002
  0.25693425E+002 -0.46796442E+002  0.64213152E+002
  0.25655920E+002 -0.46819194E+002  0.51970026E+002
  0.22269105E+002 -0.41772908E+002  0.39727260E+002
  0.15303577E+002 -0.31796052E+002  0.27484770E+002
  0.69106899E+001 -0.19929906E+002  0.15243237E+002
 -0.36839096E+001 -0.23198760E+001  0.29997237E+001
 -0.19060000E+001 -0.38971143E+001  0.11318291E+003
  0.67984790E+001 -0.20003986E+002  0.10094036E+003
  0.15184195E+002 -0.31897709E+002  0.88697816E+002
  0.21809073E+002 -0.42089536E+002  0.76455271E+002
  0.25016718E+002 -0.47245953E+002  0.64212725E+002
  0.24978734E+002 -0.47267883E+002  0.51970180E+002
  0.21683653E+002 -0.42161947E+002  0.39727634E+002
  0.14899489E+002 -0.32062084E+002  0.27485089E+002
  0.67224857E+001 -0.20047861E+002  0.15242543E+002
 -0.35531143E+001 -0.22500000E+001  0.29999979E+001
 -0.99892788E-001 -0.35901342E-002  0.15120159E+002
 -0.24373634E+001 -0.87820877E-001  0.15120161E+002
 -0.47748322E+001 -0.17211042E+000  0.15120195E+002
 -0.71123006E+001 -0.25640697E+000  0.15120193E+002
 -0.94497714E+001 -0.34058855E+000  0.15120278E+002
 -0.11787247E+002 -0.42488381E+000  0.15120295E+002
 -0.14124714E+002 -0.50914400E+000  0.15120250E+002
 -0.16462177E+002 -0.59340391E+000  0.15120177E+002
 -0.18799640E+002 -0.67766214E+000  0.15120093E+002
 -0.21137103E+002 -0.76191756E+000  0.15120026E+002
 -0.26168351E+000  0.44935005E+001  0.15120095E+002
 -0.25992273E+001  0.44092671E+001  0.15120071E+002
 -0.49371048E+001  0.43249628E+001  0.15120102E+002
 -0.72747641E+001  0.42406594E+001  0.15120186E+002
 -0.96118067E+001  0.41564932E+001  0.15120282E+002
 -0.11949280E+002  0.40721980E+001  0.15120317E+002
 -0.14286745E+002  0.39879379E+001  0.15120279E+002
 -0.16624205E+002  0.39036781E+001  0.15120212E+002
 -0.18961664E+002  0.38194201E+001  0.15120132E+002
 -0.21299100E+002  0.37351656E+001  0.15120018E+002
 -0.87094136E-002  0.44974847E+001  0.15120095E+002
 -0.23473912E+001  0.44553661E+001  0.15120071E+002
 -0.46864075E+001  0.44131826E+001  0.15120102E+002
 -0.70252066E+001  0.43709960E+001  0.15120186E+002
 -0.93633865E+001  0.43289356E+001  0.15120282E+002
 -0.11701999E+002  0.42867539E+001  0.15120317E+002
 -0.14040601E+002  0.42446071E+001  0.15120279E+002
 -0.16379199E+002  0.42024605E+001  0.15120212E+002
 -0.18717798E+002  0.41603157E+001  0.15120132E+002
 -0.21056372E+002  0.41181741E+001  0.15120018E+002
  0.24400000E+000  0.45000000E+001  0.15120120E+002
 -0.20949775E+001  0.45000000E+001  0.15120120E+002
 -0.44339551E+001  0.45000000E+001  0.15120120E+002
 -0.67729326E+001  0.45000000E+001  0.15120120E+002
 -0.91119102E+001  0.45000000E+001  0.15120120E+002
 -0.11450888E+002  0.45000000E+001  0.15120120E+002
 -0.13789865E+002  0.45000000E+001  0.15120120E+002
 -0.16128843E+002  0.45000000E+001  0.15120120E+002
 -0.18467820E+002  0.45000000E+001  0.15120120E+002
 -0.20806798E+002  0.45000000E+001  0.15120120E+002
  0.46890836E-001  0.88358589E-001  0.15120159E+002
  0.11426784E+001  0.21548003E+001  0.15120218E+002
  0.22384635E+001  0.42212445E+001  0.15120284E+002
  0.33342491E+001  0.62876881E+001  0.15120345E+002
  0.44300348E+001  0.83541314E+001  0.15120402E+002
  0.55257645E+001  0.10420630E+002  0.15120524E+002
  0.66215439E+001  0.12487074E+002  0.15120622E+002
  0.77173210E+001  0.14553517E+002  0.15120733E+002
  0.88130973E+001  0.16619959E+002  0.15120831E+002
  0.99088750E+001  0.18686397E+002  0.15120878E+002
  0.40224874E+001 -0.20198710E+001  0.15120200E+002
  0.51182717E+001  0.46564505E-001  0.15120259E+002
  0.62140528E+001  0.21130012E+001  0.15120323E+002
  0.73098287E+001  0.41794265E+001  0.15120380E+002
  0.84056034E+001  0.62458491E+001  0.15120430E+002
  0.95013258E+001  0.83123339E+001  0.15120535E+002
  0.10597107E+002  0.10378782E+002  0.15120638E+002
  0.11692884E+002  0.12445225E+002  0.15120754E+002
  0.12788656E+002  0.14511658E+002  0.15120856E+002
  0.13884497E+002  0.16578215E+002  0.15120883E+002
  0.41574554E+001 -0.20919917E+001  0.15120200E+002
  0.52902801E+001 -0.45627389E-001  0.15120259E+002
  0.64231017E+001  0.20007383E+001  0.15120323E+002
  0.75559180E+001  0.40470922E+001  0.15120380E+002
  0.86887330E+001  0.60934438E+001  0.15120430E+002
  0.98214965E+001  0.81398592E+001  0.15120535E+002
  0.10954319E+002  0.10186236E+002  0.15120638E+002
  0.12087136E+002  0.12232608E+002  0.15120754E+002
  0.13219949E+002  0.14278971E+002  0.15120856E+002
  0.14352833E+002  0.16325453E+002  0.15120883E+002
[...]
CELL_DATA 594
SCALARS Gamma double
LOOKUP_TABLE default
 -0.19333652E-002
  0.19333652E-002
 -0.49365860E-001
  0.47432494E-001
 -0.43286494E-001
 -0.60793656E-002
 -0.45425457E-001
  0.21389628E-002
 -0.48083786E-001
  0.26583296E-002
 -0.46846859E-001
 -0.12369275E-002
 -0.46336558E-001
 -0.51030086E-003
 -0.51705978E-001
  0.53694202E-002
 -0.27013546E-001
 -0.24692432E-001
 -0.27013546E-001
  0.00000000E+000
  0.19333652E-002
  0.00000000E+000
  0.47432494E-001
  0.00000000E+000
 -0.60793656E-002
  0.00000000E+000
  0.21389628E-002
  0.00000000E+000
  0.26583296E-002
  0.00000000E+000
 -0.12369275E-002
  0.00000000E+000
 -0.51030086E-003
  0.00000000E+000
  0.53694202E-002
  0.00000000E+000
 -0.24692432E-001
 -0.27013546E-001
  0.19333652E-002
  0.00000000E+000
  0.00000000E+000
  0.49365860E-001
 -0.00000000E+000
  0.00000000E+000
  0.43286494E-001
 -0.00000000E+000
  0.00000000E+000
  0.45425457E-001
 -0.00000000E+000
  0.00000000E+000
  0.48083786E-001
 -0.00000000E+000
  0.00000000E+000
  0.46846859E-001
 -0.00000000E+000
  0.00000000E+000
  0.46336558E-001
 -0.00000000E+000
  0.00000000E+000
  0.51705978E-001
 -0.00000000E+000
  0.00000000E+000
  0.27013546E-001
 -0.00000000E+000
  0.00000000E+000
 -0.00000000E+000
  0.37828913E-001
 -0.37828913E-001
  0.24458689E-001
  0.13370223E-001
  0.19210240E-001
  0.52484491E-002
  0.20399352E-001
 -0.11891119E-002
  0.21936031E-001
 -0.15366792E-002
  0.21245590E-001
  0.69044154E-003
  0.20926311E-001
  0.31927910E-003
  0.25812927E-001
 -0.48866163E-002
  0.24788698E-001
  0.10242292E-002
  0.24788698E-001
  0.00000000E+000
 -0.37828913E-001
  0.00000000E+000
  0.13370223E-001
  0.00000000E+000
  0.52484491E-002
  0.00000000E+000
 -0.11891119E-002
  0.00000000E+000
 -0.15366792E-002
  0.00000000E+000
  0.69044154E-003
  0.00000000E+000
  0.31927910E-003
  0.00000000E+000
 -0.48866163E-002
  0.00000000E+000
  0.10242292E-002
  0.24788698E-001
 -0.37828913E-001
 -0.00000000E+000
 -0.00000000E+000
 -0.24458689E-001
 -0.00000000E+000
 -0.00000000E+000
 -0.19210240E-001
 -0.00000000E+000
 -0.00000000E+000
 -0.20399352E-001
 -0.00000000E+000
 -0.00000000E+000
 -0.21936031E-001
 -0.00000000E+000
 -0.00000000E+000
 -0.21245590E-001
 -0.00000000E+000
 -0.00000000E+000
 -0.20926311E-001
 -0.00000000E+000
 -0.00000000E+000
 -0.25812927E-001
 -0.00000000E+000
 -0.00000000E+000
 -0.24788698E-001
 -0.00000000E+000
 -0.00000000E+000
  0.00000000E+000
  0.12044248E-001
 -0.12044248E-001
  0.27192721E-001
 -0.15148473E-001
  0.22275488E-001
  0.49172335E-002
  0.23642606E-001
 -0.13671179E-002
  0.25408316E-001
 -0.17657108E-002
  0.24656424E-001
  0.75189261E-003
  0.24333978E-001
  0.32244619E-003
  0.28786184E-001
 -0.44522066E-002
  0.75452781E-002
  0.21240906E-001
  0.75452781E-002
  0.00000000E+000
 -0.12044248E-001
  0.00000000E+000
 -0.15148473E-001
  0.00000000E+000
  0.49172335E-002
  0.00000000E+000
 -0.13671179E-002
  0.00000000E+000
 -0.17657108E-002
  0.00000000E+000
  0.75189261E-003
  0.00000000E+000
  0.32244619E-003
  0.00000000E+000
 -0.44522066E-002
  0.00000000E+000
  0.21240906E-001
  0.75452781E-002
 -0.12044248E-001
 -0.00000000E+000
 -0.00000000E+000
 -0.27192721E-001
 -0.00000000E+000
 -0.00000000E+000
 -0.22275488E-001
 -0.00000000E+000
 -0.00000000E+000
 -0.23642606E-001
 -0.00000000E+000
 -0.00000000E+000
 -0.25408316E-001
 -0.00000000E+000
 -0.00000000E+000
 -0.24656424E-001
 -0.00000000E+000
 -0.00000000E+000
 -0.24333978E-001
 -0.00000000E+000
 -0.00000000E+000
 -0.28786184E-001
 -0.00000000E+000
 -0.00000000E+000
 -0.75452781E-002
 -0.00000000E+000
 -0.00000000E+000
  0.00000000E+000
  0.11178896E-003
 -0.11178896E-003
  0.90566704E-004
  0.21222256E-004
 -0.44654333E-004
  0.13522104E-003
 -0.13173602E-003
  0.87081687E-004
 -0.21982977E-003
  0.88093747E-004
 -0.28840513E-003
  0.68575362E-004
 -0.35319586E-003
  0.64790730E-004
 -0.41969790E-003
  0.66502040E-004
 -0.72240693E-003
  0.30270903E-003
 -0.72240693E-003
  0.00000000E+000
 -0.11178896E-003
  0.00000000E+000
  0.21222256E-004
  0.00000000E+000
  0.13522104E-003
  0.00000000E+000
  0.87081687E-004
  0.00000000E+000
  0.88093747E-004
  0.00000000E+000
  0.68575362E-004
  0.00000000E+000
  0.64790730E-004
  0.00000000E+000
  0.66502040E-004
  0.00000000E+000
  0.30270903E-003
 -0.72240693E-003
 -0.11178896E-003
 -0.00000000E+000
 -0.00000000E+000
 -0.90566704E-004
 -0.00000000E+000
 -0.00000000E+000
  0.44654333E-004
  0.00000000E+000
  0.00000000E+000
  0.13173602E-003
 -0.00000000E+000
  0.00000000E+000
  0.21982977E-003
 -0.00000000E+000
  0.00000000E+000
  0.28840513E-003
 -0.00000000E+000
  0.00000000E+000
  0.35319586E-003
 -0.00000000E+000
  0.00000000E+000
  0.41969790E-003
 -0.00000000E+000
  0.00000000E+000
  0.72240693E-003
 -0.00000000E+000
  0.00000000E+000
 -0.00000000E+000
  0.10372159E-004
 -0.10372159E-004
  0.71801593E-004
 -0.61429434E-004
  0.57633490E-004
  0.14168103E-004
  0.42409198E-004
  0.15224292E-004
  0.28425975E-005
  0.39566601E-004
 -0.89228721E-005
  0.11765470E-004
 -0.32871842E-004
  0.23948970E-004
 -0.56286228E-004
  0.23414386E-004
 -0.62894172E-004
  0.66079444E-005
 -0.62894172E-004
  0.00000000E+000
 -0.10372159E-004
  0.00000000E+000
 -0.61429434E-004
  0.00000000E+000
  0.14168103E-004
  0.00000000E+000
  0.15224292E-004
  0.00000000E+000
  0.39566601E-004
  0.00000000E+000
  0.11765470E-004
  0.00000000E+000
  0.23948970E-004
  0.00000000E+000
  0.23414386E-004
  0.00000000E+000
  0.66079444E-005
 -0.62894172E-004
 -0.10372159E-004
 -0.00000000E+000
 -0.00000000E+000
 -0.71801593E-004
 -0.00000000E+000
 -0.00000000E+000
 -0.57633490E-004
 -0.00000000E+000
 -0.00000000E+000
 -0.42409198E-004
 -0.00000000E+000
 -0.00000000E+000
 -0.28425975E-005
 -0.00000000E+000
 -0.00000000E+000
  0.89228721E-005
 -0.00000000E+000
 -0.00000000E+000
  0.32871842E-004
  0.00000000E+000
  0.00000000E+000
  0.56286228E-004
 -0.00000000E+000
  0.00000000E+000
  0.62894172E-004
 -0.00000000E+000
  0.00000000E+000
 -0.00000000E+000
  0.31706334E-003
 -0.31706334E-003
  0.10855821E-002
 -0.76851874E-003
  0.11464166E-002
 -0.60834567E-004
 -0.21240671E-003
  0.13588234E-002
 -0.98750851E-004
 -0.11365586E-003
 -0.20557854E-003
  0.10682769E-003
 -0.23276157E-003
  0.27183021E-004
 -0.20305264E-003
 -0.29708926E-004
 -0.55451033E-004
 -0.14760161E-003
 -0.55451033E-004
  0.00000000E+000
 -0.31706334E-003
  0.00000000E+000
 -0.76851874E-003
  0.00000000E+000
 -0.60834567E-004
  0.00000000E+000
  0.13588234E-002
  0.00000000E+000
 -0.11365586E-003
  0.00000000E+000
  0.10682769E-003
  0.00000000E+000
  0.27183021E-004
  0.00000000E+000
 -0.29708926E-004
  0.00000000E+000
 -0.14760161E-003
 -0.55451033E-004
 -0.31706334E-003
 -0.00000000E+000
 -0.00000000E+000
 -0.10855821E-002
 -0.00000000E+000
 -0.00000000E+000
 -0.11464166E-002
 -0.00000000E+000
 -0.00000000E+000
  0.21240671E-003
  0.00000000E+000
  0.00000000E+000
  0.98750851E-004
 -0.00000000E+000
  0.00000000E+000
  0.20557854E-003
 -0.00000000E+000
  0.00000000E+000
  0.23276157E-003
 -0.00000000E+000
  0.00000000E+000
  0.20305264E-003
 -0.00000000E+000
  0.00000000E+000
  0.55451033E-004
 -0.00000000E+000
  0.00000000E+000
 -0.00000000E+000
 -0.91695695E-003
  0.91695695E-003
 -0.14757175E-003
 -0.76938520E-003
 -0.62328641E-003
  0.47571466E-003
 -0.62496275E-003
  0.16763481E-005
 -0.65583608E-003
  0.30873329E-004
 -0.64490786E-003
 -0.10928222E-004
 -0.60006847E-003
 -0.44839392E-004
 -0.50211691E-003
 -0.97951565E-004
 -0.17026409E-003
 -0.33185281E-003
 -0.17026409E-003
  0.00000000E+000
  0.91695695E-003
  0.00000000E+000
 -0.76938520E-003
  0.00000000E+000
  0.47571466E-003
  0.00000000E+000
  0.16763481E-005
  0.00000000E+000
  0.30873329E-004
  0.00000000E+000
 -0.10928222E-004
  0.00000000E+000
 -0.44839392E-004
  0.00000000E+000
 -0.97951565E-004
  0.00000000E+000
 -0.33185281E-003
 -0.17026409E-003
  0.91695695E-003
  0.00000000E+000
  0.00000000E+000
  0.14757175E-003
 -0.00000000E+000
  0.00000000E+000
  0.62328641E-003
 -0.00000000E+000
  0.00000000E+000
  0.62496275E-003
 -0.00000000E+000
  0.00000000E+000
  0.65583608E-003
 -0.00000000E+000
  0.00000000E+000
  0.64490786E-003
 -0.00000000E+000
  0.00000000E+000
  0.60006847E-003
 -0.00000000E+000
  0.00000000E+000
  0.50211691E-003
 -0.00000000E+000
  0.00000000E+000
  0.17026409E-003
 -0.00000000E+000
  0.00000000E+000
 -0.00000000E+000
 -0.73094175E-003
  0.73094175E-003
 -0.73893044E-003
  0.79886939E-005
 -0.79671632E-003
  0.57785883E-004
 -0.78302648E-003
 -0.13689843E-004
 -0.69806237E-003
 -0.84964109E-004
 -0.60472439E-003
 -0.93337979E-004
 -0.47183506E-003
 -0.13288933E-003
 -0.30477219E-003
 -0.16706287E-003
 -0.14478765E-003
 -0.15998455E-003
 -0.14478765E-003
  0.00000000E+000
  0.73094175E-003
  0.00000000E+000
  0.79886939E-005
  0.00000000E+000
  0.57785883E-004
  0.00000000E+000
 -0.13689843E-004
  0.00000000E+000
 -0.84964109E-004
  0.00000000E+000
 -0.93337979E-004
  0.00000000E+000
 -0.13288933E-003
  0.00000000E+000
 -0.16706287E-003
  0.00000000E+000
 -0.15998455E-003
 -0.14478765E-003
  0.73094175E-003
  0.00000000E+000
  0.00000000E+000
  0.73893044E-003
 -0.00000000E+000
  0.00000000E+000
  0.79671632E-003
 -0.00000000E+000
  0.00000000E+000
  0.78302648E-003
 -0.00000000E+000
  0.00000000E+000
  0.69806237E-003
 -0.00000000E+000
  0.00000000E+000
  0.60472439E-003
 -0.00000000E+000
  0.00000000E+000
  0.47183506E-003
 -0.00000000E+000
  0.00000000E+000
  0.30477219E-003
 -0.00000000E+000
  0.00000000E+000
  0.14478765E-003
 -0.00000000E+000
  0.00000000E+000
 -0.00000000E+000
  0.33322327E-002
 -0.33322327E-002
  0.45863868E-002
 -0.12541541E-002
  0.24759404E-002
  0.21104465E-002
 -0.43077926E-003
  0.29067196E-002
 -0.17728006E-003
 -0.25349921E-003
 -0.24369466E-003
  0.66414602E-004
 -0.15362916E-003
 -0.90065497E-004
 -0.81511116E-004
 -0.72118046E-004
 -0.84077569E-004
  0.25664527E-005
 -0.84077569E-004
  0.00000000E+000
 -0.33322327E-002
  0.00000000E+000
 -0.12541541E-002
  0.00000000E+000
  0.21104465E-002
  0.00000000E+000
  0.29067196E-002
  0.00000000E+000
 -0.25349921E-003
  0.00000000E+000
  0.66414602E-004
  0.00000000E+000
 -0.90065497E-004
  0.00000000E+000
 -0.72118046E-004
  0.00000000E+000
  0.25664527E-005
 -0.84077569E-004
 -0.33322327E-002
 -0.00000000E+000
 -0.00000000E+000
 -0.45863868E-002
 -0.00000000E+000
 -0.00000000E+000
 -0.24759404E-002
 -0.00000000E+000
 -0.00000000E+000
  0.43077926E-003
  0.00000000E+000
  0.00000000E+000
  0.17728006E-003
 -0.00000000E+000
  0.00000000E+000
  0.24369466E-003
 -0.00000000E+000
  0.00000000E+000
  0.15362916E-003
 -0.00000000E+000
  0.00000000E+000
  0.81511116E-004
 -0.00000000E+000
  0.00000000E+000
  0.84077569E-004
 -0.00000000E+000
  0.00000000E+000
 -0.00000000E+000
SCALARS Epsilon double
LOOKUP_TABLE default
  0.23921366E+002
  0.23921366E+002
  0.18971836E+002
  0.21446601E+002
  0.17240385E+002
  0.18106111E+002
  0.13664467E+002
  0.15452426E+002
  0.12242545E+002
  0.12953506E+002
  0.13664467E+002
  0.12953506E+002
  0.17240385E+002
  0.15452426E+002
  0.18971836E+002
  0.18106111E+002
  0.23921366E+002
  0.21446601E+002
  0.23921366E+002
  0.23921366E+002
  0.23921366E+002
  0.18971836E+002
  0.21446601E+002
  0.17240385E+002
  0.18106111E+002
  0.13664467E+002
  0.15452426E+002
  0.12242545E+002
  0.12953506E+002
  0.13664467E+002
  0.12953506E+002
  0.17240385E+002
  0.15452426E+002
  0.18971836E+002
  0.18106111E+002
  0.23921366E+002
  0.21446601E+002
  0.23921366E+002
  0.23921366E+002
  0.23921366E+002
  0.23921366E+002
  0.18971836E+002
  0.21446601E+002
  0.18971836E+002
  0.17240385E+002
  0.18106111E+002
  0.17240385E+002
  0.13664467E+002
  0.15452426E+002
  0.13664467E+002
  0.12242545E+002
  0.12953506E+002
  0.12242545E+002
  0.13664467E+002
  0.12953506E+002
  0.13664467E+002
  0.17240385E+002
  0.15452426E+002
  0.17240385E+002
  0.18971836E+002
  0.18106111E+002
  0.18971836E+002
  0.23921366E+002
  0.21446601E+002
  0.23921366E+002
  0.23921366E+002
  0.23921366E+002
  0.23921366E+002
  0.18971836E+002
  0.21446601E+002
  0.17240385E+002
  0.18106111E+002
  0.13664467E+002
  0.15452426E+002
  0.12242545E+002
  0.12953506E+002
  0.13664467E+002
  0.12953506E+002
  0.17240385E+002
  0.15452426E+002
  0.18971836E+002
  0.18106111E+002
  0.23921366E+002
  0.21446601E+002
  0.23921366E+002
  0.23921366E+002
  0.23921366E+002
  0.18971836E+002
  0.21446601E+002
  0.17240385E+002
  0.18106111E+002
  0.13664467E+002
  0.15452426E+002
  0.12242545E+002
  0.12953506E+002
  0.13664467E+002
  0.12953506E+002
  0.17240385E+002
  0.15452426E+002
  0.18971836E+002
  0.18106111E+002
  0.23921366E+002
  0.21446601E+002
  0.23921366E+002
  0.23921366E+002
  0.23921366E+002
  0.23921366E+002
  0.18971836E+002
  0.21446601E+002
  0.18971836E+002
  0.17240385E+002
  0.18106111E+002
  0.17240385E+002
  0.13664467E+002
  0.15452426E+002
  0.13664467E+002
  0.12242545E+002
  0.12953506E+002
  0.12242545E+002
  0.13664467E+002
  0.12953506E+002
  0.13664467E+002
  0.17240385E+002
  0.15452426E+002
  0.17240385E+002
  0.18971836E+002
  0.18106111E+002
  0.18971836E+002
  0.23921366E+002
  0.21446601E+002
  0.23921366E+002
  0.23921366E+002
  0.23921366E+002
  0.23921366E+002
  0.18971836E+002
  0.21446601E+002
  0.17240385E+002
  0.18106111E+002
  0.13664467E+002
  0.15452426E+002
  0.12242545E+002
  0.12953506E+002
  0.13664467E+002
  0.12953506E+002
  0.17240385E+002
  0.15452426E+002
  0.18971836E+002
  0.18106111E+002
  0.23921366E+002
  0.21446601E+002
  0.23921366E+002
  0.23921366E+002
  0.23921366E+002
  0.18971836E+002
  0.21446601E+002
  0.17240385E+002
  0.18106111E+002
  0.13664467E+002
  0.15452426E+002
  0.12242545E+002
  0.12953506E+002
  0.13664467E+002
  0.12953506E+002
  0.17240385E+002
  0.15452426E+002
  0.18971836E+002
  0.18106111E+002
  0.23921366E+002
  0.21446601E+002
  0.23921366E+002
  0.23921366E+002
  0.23921366E+002
  0.23921366E+002
  0.18971836E+002
  0.21446601E+002
  0.18971836E+002
  0.17240385E+002
  0.18106111E+002
  0.17240385E+002
  0.13664467E+002
  0.15452426E+002
  0.13664467E+002
  0.12242545E+002
  0.12953506E+002
  0.12242545E+002
  0.13664467E+002
  0.12953506E+002
  0.13664467E+002
  0.17240385E+002
  0.15452426E+002
  0.17240385E+002
  0.18971836E+002
  0.18106111E+002
  0.18971836E+002
  0.23921366E+002
  0.21446601E+002
  0.23921366E+002
  0.23921366E+002
  0.23389775E+001
  0.23389775E+001
  0.23389775E+001
  0.23389775E+001
  0.23389775E+001
  0.23389775E+001
  0.23389775E+001
  0.23389775E+001
  0.23389775E+001
  0.23389775E+001
  0.23389775E+001
  0.23389775E+001
  0.23389775E+001
  0.23389775E+001
  0.23389775E+001
  0.23389775E+001
  0.23389775E+001
  0.23389775E+001
  0.23389775E+001
  0.23389775E+001
  0.23389775E+001
  0.23389775E+001
  0.23389775E+001
  0.23389775E+001
  0.23389775E+001
  0.23389775E+001
  0.23389775E+001
  0.23389775E+001
  0.23389775E+001
  0.23389775E+001
  0.23389775E+001
  0.23389775E+001
  0.23389775E+001
  0.23389775E+001
  0.23389775E+001
  0.23389775E+001
  0.23389775E+001
  0.23389775E+001
  0.23389775E+001
  0.23389775E+001
  0.23389775E+001
  0.23389775E+001
  0.23389775E+001
  0.23389775E+001
  0.23389775E+001
  0.23389775E+001
  0.23389775E+001
  0.23389775E+001
  0.23389775E+001
  0.23389775E+001
  0.23389775E+001
  0.23389775E+001
  0.23389775E+001
  0.23389775E+001
  0.23389775E+001
  0.23389775E+001
  0.23389775E+001
  0.23389775E+001
  0.23389775E+001
  0.23389775E+001
  0.23389775E+001
  0.23389775E+001
  0.23389775E+001
  0.23389775E+001
  0.23389775E+001
  0.23389775E+001
  0.23389775E+001
  0.23389775E+001
  0.23389775E+001
  0.23389775E+001
  0.23389775E+001
  0.23389775E+001
  0.23389775E+001
  0.23389775E+001
  0.23389775E+001
  0.23389775E+001
  0.23389775E+001
  0.23389775E+001
  0.23389775E+001
  0.23389775E+001
  0.23389775E+001
  0.23389775E+001
  0.23389775E+001
  0.23389775E+001
  0.23389775E+001
  0.23389775E+001
  0.23389775E+001
  0.23389775E+001
  0.23389775E+001
  0.23389775E+001
  0.23389775E+001
  0.23389775E+001
  0.23389775E+001
  0.23389775E+001
  0.23389775E+001
  0.23389775E+001
  0.23389775E+001
  0.23389775E+001
  0.23389775E+001
  0.23389775E+001
  0.23389775E+001
  0.23389775E+001
  0.23389775E+001
  0.23389775E+001
  0.23389775E+001
  0.23389775E+001
  0.23389775E+001
  0.23389775E+001
  0.23389775E+001
  0.23389775E+001
  0.23389775E+001
  0.23389775E+001
  0.23389775E+001
  0.23389775E+001
  0.23389775E+001
  0.23389775E+001
  0.23389775E+001
  0.23389775E+001
  0.23389775E+001
  0.23389775E+001
  0.23389775E+001
  0.23389775E+001
  0.23389775E+001
  0.23389775E+001
  0.23389775E+001
  0.23389775E+001
  0.23389775E+001
  0.23389775E+001
  0.23389775E+001
  0.23389775E+001
  0.23389775E+001
  0.23389775E+001
  0.23389775E+001
  0.23389775E+001
  0.23389775E+001
  0.23389775E+001
  0.23389775E+001
  0.23389775E+001
  0.23389775E+001
  0.23389775E+001
  0.23389775E+001
  0.23389775E+001
  0.23389775E+001
  0.23389775E+001
  0.23389775E+001
  0.23389775E+001
  0.23389775E+001
  0.23389775E+001
  0.23389775E+001
  0.23389775E+001
  0.23389775E+001
  0.23389775E+001
  0.23389775E+001
  0.23389775E+001
  0.23389775E+001
  0.23389775E+001
  0.23389775E+001
  0.23389775E+001
  0.23389775E+001
  0.23389775E+001
  0.23389775E+001
  0.23389775E+001
  0.23389775E+001
  0.23389775E+001
  0.23389775E+001
  0.23389775E+001
  0.23389775E+001
  0.23389775E+001
  0.23389775E+001
  0.23389775E+001
  0.23389775E+001
  0.23389775E+001
  0.23389775E+001
  0.23389775E+001
  0.23389775E+001
  0.23389775E+001
  0.23389775E+001
  0.23389775E+001
  0.23389775E+001
  0.23389775E+001
  0.23389775E+001
  0.23389775E+001
  0.23389775E+001
  0.23389775E+001
  0.23389775E+001
  0.23389775E+001
  0.23389775E+001
  0.23389775E+001
  0.23389775E+001
  0.23389775E+001
  0.23389775E+001
  0.23389775E+001
  0.23389775E+001
  0.23389775E+001
  0.23389775E+001
  0.23389775E+001
  0.23389775E+001
  0.23389775E+001
  0.23389775E+001
  0.23389775E+001
  0.23389775E+001
  0.23389775E+001
  0.23389775E+001
  0.23389775E+001
  0.23389775E+001
  0.23389775E+001
  0.23389775E+001
  0.23389775E+001
  0.23389775E+001
  0.23389775E+001
  0.23389775E+001
  0.23389775E+001
  0.23389775E+001
  0.23389775E+001
  0.23389775E+001
  0.23389775E+001
  0.23389775E+001
  0.23389775E+001
  0.23389775E+001
  0.23389775E+001
  0.23389775E+001
  0.23389775E+001
  0.23389775E+001
  0.23389775E+001
  0.23389775E+001
  0.23389775E+001
  0.23389775E+001
  0.23389775E+001
  0.23389775E+001
  0.23389775E+001
  0.23389775E+001
  0.23389775E+001
  0.23389775E+001
  0.23389775E+001
  0.23389775E+001
  0.23389775E+001
  0.23389775E+001
  0.23389775E+001
  0.23389775E+001
  0.23389775E+001
  0.23389775E+001
  0.23389775E+001
  0.23389775E+001
  0.23389775E+001
  0.23389775E+001
  0.23389775E+001
  0.23389775E+001
  0.23389775E+001
  0.23389775E+001
  0.23389775E+001
  0.23389775E+001
  0.23389775E+001
  0.23389775E+001
  0.23389775E+001
  0.23389775E+001
  0.23389775E+001
  0.23389775E+001
  0.23389775E+001
  0.23389775E+001
  0.23389775E+001
  0.23389775E+001
  0.23389775E+001
  0.23389775E+001
  0.23389775E+001
  0.23389775E+001
  0.23389775E+001
  0.23389775E+001
  0.23389775E+001
  0.23389775E+001
  0.23389775E+001
  0.23389775E+001
  0.23389775E+001
  0.23389775E+001
  0.23389775E+001
  0.23389775E+001
  0.23389775E+001
  0.23389775E+001
  0.23389775E+001
  0.23389775E+001
  0.23389775E+001
  0.23389775E+001
  0.23389775E+001
  0.23389775E+001
  0.23389775E+001
  0.23389775E+001
  0.23389775E+001
  0.23389775E+001
  0.23389775E+001
  0.23389775E+001
  0.23389775E+001
  0.23389775E+001
  0.23389775E+001
  0.23389775E+001
  0.23389775E+001
  0.23389775E+001
  0.23389775E+001
  0.23389775E+001
  0.23389775E+001
  0.23389775E+001
  0.23389775E+001
  0.23389775E+001
  0.23389775E+001
  0.23389775E+001
  0.23389775E+001
  0.23389775E+001
  0.23389775E+001
  0.23389775E+001
  0.23389775E+001
  0.23389775E+001
  0.23389775E+001
  0.23389775E+001
  0.23389775E+001
  0.23389775E+001