# vtk DataFile Version 2.0

ASCII
 
DATASET POLYDATA
POINTS 90 double
  0.51601470E-001  0.10240591E-001  0.11318169E+003
 -0.20371407E+002 -0.25897589E+001  0.10099928E+003
 -0.34757166E+002 -0.44307621E+001  0.88764379E+002
 -0.46760179E+002 -0.59793764E+001  0.76492864E+002
 -0.52770185E+002 -0.67587024E+001  0.64246796E+002
 -0.52772849E+002 -0.67622969E+001  0.52005012E+002
 -0.46762446E+002 -0.59905793E+001  0.39760378E+002
 -0.34761260E+002 -0.44348782E+001  0.27481910E+002
 -0.20387396E+002 -0.25942130E+001  0.15240756E+002
  0.17654499E-003  0.45762293E-004  0.30001281E+001
 -0.44122823E+001 -0.55860480E+000  0.11316917E+003
 -0.20937540E+002  0.17860205E+001  0.10100088E+003
 -0.35162296E+002 -0.13605103E+001  0.88769040E+002
 -0.47074141E+002 -0.35440621E+001  0.76493686E+002
 -0.53053159E+002 -0.45207455E+001  0.64246535E+002
 -0.53060249E+002 -0.44806909E+001  0.52004105E+002
 -0.47083001E+002 -0.34101246E+001  0.39756447E+002
 -0.35186211E+002 -0.10357197E+001  0.27482132E+002
 -0.20949941E+002  0.18704866E+001  0.15241121E+002
 -0.56636821E+000  0.44642396E+001  0.30005392E+001
 -0.42501409E+001 -0.47998056E+000  0.11316628E+003
 -0.20731814E+002  0.21632197E+001  0.10100775E+003
 -0.35013256E+002 -0.72638678E+000  0.88773012E+002
 -0.46964767E+002 -0.26950301E+001  0.76497400E+002
 -0.52963591E+002 -0.35637615E+001  0.64248279E+002
 -0.52969869E+002 -0.35236116E+001  0.52002459E+002
 -0.46971068E+002 -0.25610316E+001  0.39752835E+002
 -0.35031191E+002 -0.40130486E+000  0.27478209E+002
 -0.20743139E+002  0.22480485E+001  0.15239344E+002
 -0.31547560E+000  0.44728636E+001  0.30023660E+001
 -0.41028145E+001 -0.40230114E+000  0.11316879E+003
 -0.20521802E+002  0.25417549E+001  0.10099162E+003
 -0.34849658E+002 -0.84159139E-001  0.88751632E+002
 -0.46849888E+002 -0.18296999E+001  0.76485843E+002
 -0.52868712E+002 -0.25852197E+001  0.64237430E+002
 -0.52873360E+002 -0.25436709E+001  0.51990284E+002
 -0.46853948E+002 -0.16930165E+001  0.39741682E+002
 -0.34864335E+002  0.24140707E+000  0.27477162E+002
 -0.20529161E+002  0.26274540E+001  0.15238916E+002
 -0.63950533E-001  0.44802611E+001  0.30034934E+001
 -0.39511423E+001 -0.32357532E+000  0.11317157E+003
 -0.20302928E+002  0.29187291E+001  0.10097557E+003
 -0.34672200E+002  0.55606453E+000  0.88732507E+002
 -0.46712615E+002 -0.96690664E+000  0.76474437E+002
 -0.52745593E+002 -0.16100707E+001  0.64227608E+002
 -0.52748826E+002 -0.15673913E+001  0.51981641E+002
 -0.46715000E+002 -0.82776524E+000  0.39734821E+002
 -0.34683385E+002  0.88228705E+000  0.27478568E+002
 -0.20307179E+002  0.30052060E+001  0.15239353E+002
  0.18856790E+000  0.44866892E+001  0.30035845E+001
 -0.37949293E+001 -0.24394992E+000  0.11317415E+003
 -0.20075628E+002  0.32941872E+001  0.10096109E+003
 -0.34481561E+002  0.11941413E+001  0.88716637E+002
 -0.46554522E+002 -0.10707963E+000  0.76464195E+002
 -0.52598567E+002 -0.63856713E+000  0.64219372E+002
 -0.52600641E+002 -0.59508574E+000  0.51976232E+002
 -0.46555923E+002  0.34219947E-001  0.39731425E+002
 -0.34489522E+002  0.15211190E+001  0.27481280E+002
 -0.20077745E+002  0.33812818E+001  0.15240158E+002
  0.44132874E+000  0.44916598E+001  0.30039941E+001
 -0.36339020E+001 -0.16367430E+000  0.11317589E+003
 -0.19840079E+002  0.36680454E+001  0.10095015E+003
 -0.34277862E+002  0.18298572E+001  0.88704691E+002
 -0.46377294E+002  0.74945177E+000  0.76456325E+002
 -0.52430032E+002  0.32896477E+000  0.64213566E+002
 -0.52431324E+002  0.37283914E+000  0.51973574E+002
 -0.46378745E+002  0.89259497E+000  0.39730758E+002
 -0.34283852E+002  0.21576422E+001  0.27484275E+002
 -0.19841319E+002  0.37556378E+001  0.15241067E+002
  0.69430714E+000  0.44952360E+001  0.30042223E+001
 -0.34677454E+001 -0.82946820E-001  0.11317656E+003
 -0.19597071E+002  0.40402265E+001  0.10094343E+003
 -0.34062871E+002  0.24631340E+001  0.88697876E+002
 -0.46182020E+002  0.16023938E+001  0.76451291E+002
 -0.52241691E+002  0.12922404E+001  0.64210369E+002
 -0.52242528E+002  0.13361719E+001  0.51973168E+002
 -0.46183742E+002  0.17468427E+001  0.39732112E+002
 -0.34070376E+002  0.27919163E+001  0.27483060E+002
 -0.19597962E+002  0.41281431E+001  0.15241873E+002
  0.94730333E+000  0.44973642E+001  0.30044666E+001
 -0.32973986E+001 -0.19886657E-002  0.11317661E+003
 -0.19348081E+002  0.44109226E+001  0.10094000E+003
 -0.33840875E+002  0.30948551E+001  0.88697547E+002
 -0.45971037E+002  0.24526270E+001  0.76448785E+002
 -0.52035508E+002  0.22520973E+001  0.64209136E+002
 -0.52035748E+002  0.22960036E+001  0.51973676E+002
 -0.45971311E+002  0.25975194E+001  0.39733895E+002
 -0.33840643E+002  0.34235701E+001  0.27485392E+002
 -0.19347752E+002  0.44988359E+001  0.15242443E+002
  0.12002220E+001  0.44980489E+001  0.30047124E+001
  
POLYGONS 72 360
      4      0      1     11     10
      4      1      2     12     11
      4      2      3     13     12
      4      3      4     14     13
      4      4      5     15     14
      4      5      6     16     15
      4      6      7     17     16
      4      7      8     18     17
      4      8      9     19     18
      4     10     11     21     20
      4     11     12     22     21
      4     12     13     23     22
      4     13     14     24     23
      4     14     15     25     24
      4     15     16     26     25
      4     16     17     27     26
      4     17     18     28     27
      4     18     19     29     28
      4     20     21     31     30
      4     21     22     32     31
      4     22     23     33     32
      4     23     24     34     33
      4     24     25     35     34
      4     25     26     36     35
      4     26     27     37     36
      4     27     28     38     37
      4     28     29     39     38
      4     30     31     41     40
      4     31     32     42     41
      4     32     33     43     42
      4     33     34     44     43
      4     34     35     45     44
      4     35     36     46     45
      4     36     37     47     46
      4     37     38     48     47
      4     38     39     49     48
      4     40     41     51     50
      4     41     42     52     51
      4     42     43     53     52
      4     43     44     54     53
      4     44     45     55     54
      4     45     46     56     55
      4     46     47     57     56
      4     47     48     58     57
      4     48     49     59     58
      4     50     51     61     60
      4     51     52     62     61
      4     52     53     63     62
      4     53     54     64     63
      4     54     55     65     64
      4     55     56     66     65
      4     56     57     67     66
      4     57     58     68     67
      4     58     59     69     68
      4     60     61     71     70
      4     61     62     72     71
      4     62     63     73     72
      4     63     64     74     73
      4     64     65     75     74
      4     65     66     76     75
      4     66     67     77     76
      4     67     68     78     77
      4     68     69     79     78
      4     70     71     81     80
      4     71     72     82     81
      4     72     73     83     82
      4     73     74     84     83
      4     74     75     85     84
      4     75     76     86     85
      4     76     77     87     86
      4     77     78     88     87
      4     78     79     89     88
  
CELL_DATA 72
SCALARS Gamma double
LOOKUP_TABLE default
 -0.36473240E+001
 -0.10951581E+003
 -0.95748141E+002
 -0.91017145E+002
 -0.91766691E+002
 -0.87345358E+002
 -0.90783128E+002
 -0.10752161E+003
 -0.54393524E+002
 -0.36473240E+001
 -0.10951581E+003
 -0.95748141E+002
 -0.91017145E+002
 -0.91766691E+002
 -0.87345358E+002
 -0.90783128E+002
 -0.10752161E+003
 -0.54393524E+002
 -0.28342566E+001
 -0.79388323E+002
 -0.69385444E+002
 -0.66057483E+002
 -0.66650169E+002
 -0.63428619E+002
 -0.65857825E+002
 -0.77955958E+002
 -0.39714610E+002
 -0.17915563E+001
 -0.48619196E+002
 -0.42402214E+002
 -0.41280658E+002
 -0.42145739E+002
 -0.40220134E+002
 -0.41313394E+002
 -0.48317845E+002
 -0.24714688E+002
 -0.81856091E+000
 -0.21541708E+002
 -0.18744617E+002
 -0.18631326E+002
 -0.19216129E+002
 -0.18418026E+002
 -0.18723285E+002
 -0.21655029E+002
 -0.11135103E+002
 -0.16983547E+000
 -0.43158211E+001
 -0.37588562E+001
 -0.38076947E+001
 -0.39630860E+001
 -0.38217750E+001
 -0.38456670E+001
 -0.43977668E+001
 -0.22764939E+001
 -0.20358333E-002
 -0.50129804E-001
 -0.43769850E-001
 -0.45116199E-001
 -0.47341231E-001
 -0.45934438E-001
 -0.45782683E-001
 -0.51804677E-001
 -0.27059359E-001
 -0.00000000E+000
 -0.00000000E+000
 -0.00000000E+000
 -0.00000000E+000
 -0.00000000E+000
 -0.00000000E+000
 -0.00000000E+000
 -0.00000000E+000
 -0.00000000E+000
POINT_DATA 90
VECTORS Uconv double
  0.00000000E+000  0.00000000E+000  0.00000000E+000
  0.00000000E+000  0.00000000E+000  0.00000000E+000
  0.00000000E+000  0.00000000E+000  0.00000000E+000
  0.00000000E+000  0.00000000E+000  0.00000000E+000
  0.00000000E+000  0.00000000E+000  0.00000000E+000
  0.00000000E+000  0.00000000E+000  0.00000000E+000
  0.00000000E+000  0.00000000E+000  0.00000000E+000
  0.00000000E+000  0.00000000E+000  0.00000000E+000
  0.00000000E+000  0.00000000E+000  0.00000000E+000
  0.00000000E+000  0.00000000E+000  0.00000000E+000
  0.00000000E+000  0.00000000E+000  0.00000000E+000
  0.00000000E+000  0.00000000E+000  0.00000000E+000
  0.00000000E+000  0.00000000E+000  0.00000000E+000
  0.00000000E+000  0.00000000E+000  0.00000000E+000
  0.00000000E+000  0.00000000E+000  0.00000000E+000
  0.00000000E+000  0.00000000E+000  0.00000000E+000
  0.00000000E+000  0.00000000E+000  0.00000000E+000
  0.00000000E+000  0.00000000E+000  0.00000000E+000
  0.00000000E+000  0.00000000E+000  0.00000000E+000
  0.00000000E+000  0.00000000E+000  0.00000000E+000
  0.17148669E+002 -0.93515677E-001 -0.28935234E+000
  0.17016055E+002  0.38642697E-001  0.68759233E+000
  0.16783998E+002  0.60099203E-001  0.39718574E+000
  0.16556894E+002  0.61248229E-001  0.37141095E+000
  0.16238303E+002  0.71848839E-001  0.17439849E+000
  0.16247893E+002  0.69295463E-001 -0.16460283E+000
  0.16571419E+002  0.53563159E-001 -0.36115629E+000
  0.16796704E+002  0.51393856E-001 -0.39235845E+000
  0.16971536E+002  0.53962026E-001 -0.17776162E+000
  0.17039608E+002 -0.85268282E-001  0.18267816E+000
  0.17145811E+002 -0.95097098E-001 -0.29548211E+000
  0.17050523E+002  0.12483991E-001  0.59379701E+000
  0.16889896E+002  0.29606305E-001  0.29039355E+000
  0.16754380E+002  0.32964059E-001  0.24766419E+000
  0.16525599E+002  0.43555376E-001  0.11658180E+000
  0.16532642E+002  0.42093098E-001 -0.11185208E+000
  0.16762685E+002  0.28837488E-001 -0.24315098E+000
  0.16899880E+002  0.24970812E-001 -0.28826887E+000
  0.17015104E+002  0.31138194E-001 -0.13347180E+000
  0.17032195E+002 -0.91651910E-001  0.19670143E+000
  0.17142755E+002 -0.96702017E-001 -0.30174679E+000
  0.17079366E+002 -0.12468077E-001  0.49058252E+000
  0.16999505E+002 -0.39718886E-002  0.17907771E+000
  0.16977160E+002 -0.48684432E-002  0.10599280E+000
  0.16892001E+002 -0.40480982E-002  0.42917925E-001
  0.16893658E+002 -0.39947870E-002 -0.42627635E-001
  0.16976706E+002 -0.50344556E-002 -0.10827978E+000
  0.17006131E+002 -0.50096413E-002 -0.18025581E+000
  0.17055156E+002  0.95134403E-002 -0.94735142E-001
  0.17024250E+002 -0.97066831E-001  0.21074235E+000
  0.17139492E+002 -0.98339521E-001 -0.30815483E+000
  0.17104170E+002 -0.33261345E-001  0.34266209E+000
  0.17108732E+002 -0.39145208E-001  0.67160582E-001
  0.17198596E+002 -0.47714343E-001 -0.38792941E-001
  0.17274463E+002 -0.63027530E-001 -0.36329439E-001
  0.17269070E+002 -0.61685221E-001  0.33322204E-001
  0.17189097E+002 -0.44352239E-001  0.29694459E-001
  0.17111874E+002 -0.37201045E-001 -0.71747321E-001
  0.17091563E+002 -0.11704946E-001 -0.66950605E-001
  0.17015771E+002 -0.10157963E+000  0.22465345E+000
  0.17136014E+002 -0.10002262E+000 -0.31471988E+000
  0.17125323E+002 -0.51601328E-001  0.19803314E+000
  0.17214225E+002 -0.74679454E-001 -0.42037907E-001
  0.17394805E+002 -0.90148418E-001 -0.17236890E+000
  0.17604263E+002 -0.12283881E+000 -0.10837116E+000
  0.17592060E+002 -0.12029947E+000  0.10380753E+000
  0.17377415E+002 -0.83790147E-001  0.15768403E+000
  0.17214373E+002 -0.70390824E-001  0.34239302E-001
  0.17124283E+002 -0.30965329E-001 -0.42367160E-001
  0.17006741E+002 -0.10518048E+000  0.23831490E+000
  0.17131933E+002 -0.10095044E+000 -0.32388260E+000
  0.17143096E+002 -0.66615891E-001  0.50404563E-001
  0.17313443E+002 -0.10913527E+000 -0.14592581E+000
  0.17550319E+002 -0.12705614E+000 -0.28409034E+000
  0.17834391E+002 -0.17231197E+000 -0.16298653E+000
  0.17818537E+002 -0.16898284E+000  0.15746608E+000
  0.17527961E+002 -0.11972436E+000  0.26557069E+000
  0.17116328E+002 -0.85353212E-001 -0.53208086E-001
  0.17153586E+002 -0.49001935E-001 -0.21288736E-001
  0.16997146E+002 -0.10788226E+000  0.25161598E+000
  0.17128043E+002 -0.10282954E+000 -0.33025710E+000
  0.17157415E+002 -0.76613629E-001 -0.78822519E-001
  0.17212063E+002 -0.11647946E+000 -0.56781252E-001
  0.17660283E+002 -0.15693359E+000 -0.36851556E+000
  0.17952679E+002 -0.20498982E+000 -0.19514442E+000
  0.17935887E+002 -0.20156663E+000  0.18928730E+000
  0.17635599E+002 -0.14935296E+000  0.34784801E+000
  0.17221943E+002 -0.11463437E+000  0.57605815E-001
  0.17179926E+002 -0.65770094E-001 -0.18020324E-002
  0.16986972E+002 -0.10968136E+000  0.26444937E+000
