# vtk DataFile Version 2.0
BldPointCP.BldB
ASCII
 
DATASET POLYDATA
POINTS 9 double
  0.51883373E+001  0.10222280E+002  0.10635281E+003
  0.12714256E+002  0.25058044E+002  0.94569039E+002
  0.18720684E+002  0.36895007E+002  0.82329728E+002
  0.22787144E+002  0.44909123E+002  0.70075370E+002
  0.24101319E+002  0.47499353E+002  0.58091876E+002
  0.22786645E+002  0.44908167E+002  0.46108417E+002
  0.18719970E+002  0.36893822E+002  0.33853957E+002
  0.12713619E+002  0.25056888E+002  0.21613698E+002
  0.51862211E+001  0.10221296E+002  0.98294175E+001
  
POINT_DATA 9
SCALARS Gamma_LL double
LOOKUP_TABLE default
  0.32316852E+001
  0.19130786E+001
  0.13709975E+001
  0.15287393E+001
  0.17020696E+001
  0.16227117E+001
  0.15550934E+001
  0.20495208E+001
  0.20736592E+001
VECTORS Vind_CP double
 -0.27753741E-002 -0.13656456E-002 -0.64538866E-002
 -0.14957018E-002 -0.23366464E-002 -0.32982405E-002
 -0.94158945E-003 -0.18036811E-002 -0.12263648E-002
 -0.18130066E-002 -0.42402197E-002 -0.14333388E-002
 -0.27010992E-002 -0.64893728E-002 -0.11493063E-004
 -0.20559987E-002 -0.47973633E-002  0.17161394E-002
 -0.13334920E-002 -0.28055232E-002  0.20575204E-002
 -0.20196554E-002 -0.36839969E-002  0.41688538E-002
 -0.23787242E-002 -0.14987632E-002  0.41765870E-002
VECTORS Vtot_CP double
  0.35334471E+002 -0.94846255E+001  0.27560728E+000
  0.62083355E+002 -0.23557103E+002  0.20511450E-001
  0.83187629E+002 -0.34854578E+002 -0.39771165E+000
  0.97628426E+002 -0.42104166E+002 -0.25688313E+000
  0.10236121E+003 -0.44337714E+002 -0.30825716E-001
  0.97704751E+002 -0.41982206E+002  0.17768586E+000
  0.83301939E+002 -0.34640348E+002  0.31278162E+000
  0.62181406E+002 -0.23371478E+002  0.97597021E-002
  0.35613021E+002 -0.93764932E+001 -0.18981021E+000
VECTORS Vstr_CP double
 -0.18137246E+002  0.94832599E+001 -0.28206117E+000
 -0.44884851E+002  0.23554766E+002 -0.23809691E-001
 -0.65988570E+002  0.34852775E+002  0.39648528E+000
 -0.80430239E+002  0.42099925E+002  0.25544979E+000
 -0.85163909E+002  0.44331224E+002  0.30814223E-001
 -0.80506807E+002  0.41977409E+002 -0.17596972E+000
 -0.66103272E+002  0.34637542E+002 -0.31072410E+000
 -0.44983426E+002  0.23367794E+002 -0.55908483E-002
 -0.18415400E+002  0.93749944E+001  0.19398679E+000
VECTORS Vwnd_CP double
  0.17200000E+002  0.00000000E+000  0.00000000E+000
  0.17200000E+002  0.00000000E+000  0.00000000E+000
  0.17200000E+002  0.00000000E+000  0.00000000E+000
  0.17200000E+002  0.00000000E+000  0.00000000E+000
  0.17200000E+002  0.00000000E+000  0.00000000E+000
  0.17200000E+002  0.00000000E+000  0.00000000E+000
  0.17200000E+002  0.00000000E+000  0.00000000E+000
  0.17200000E+002  0.00000000E+000  0.00000000E+000
  0.17200000E+002  0.00000000E+000  0.00000000E+000
VECTORS Tangent double
  0.74241599E+000 -0.66993917E+000  0.77675988E-004
  0.89164650E+000 -0.45273227E+000  0.12028220E-003
  0.89183722E+000 -0.45235645E+000  0.12302855E-003
  0.89184302E+000 -0.45234504E+000  0.47765428E-004
  0.89185385E+000 -0.45232368E+000 -0.29680793E-004
  0.89194458E+000 -0.45214473E+000 -0.11281111E-003
  0.89186154E+000 -0.45230852E+000 -0.49382262E-004
  0.89175185E+000 -0.45252473E+000  0.12527145E-004
  0.89176483E+000 -0.45249913E+000  0.15632834E-003
VECTORS Normal double
  0.35190561E+000  0.39007489E+000  0.85088426E+000
  0.29187689E+000  0.57504834E+000  0.76428221E+000
  0.32109656E+000  0.63324508E+000  0.70420002E+000
  0.40527703E+000  0.79909067E+000  0.44407728E+000
  0.45232368E+000  0.89185385E+000 -0.71084498E-004
  0.40506560E+000  0.79918253E+000 -0.44410487E+000
  0.32111050E+000  0.63324227E+000 -0.70419619E+000
  0.29186020E+000  0.57512282E+000 -0.76423253E+000
  0.23173928E+000  0.45640450E+000 -0.85906451E+000
VECTORS Orth double
  0.57007099E+000  0.63168275E+000 -0.52535319E+000
  0.34608438E+000  0.68143445E+000 -0.64488192E+000
  0.31862733E+000  0.62799229E+000 -0.71000163E+000
  0.20091432E+000  0.39602787E+000 -0.89598848E+000
 -0.58624131E-004 -0.49971657E-004 -0.10000000E+001
 -0.20088983E+000 -0.39607124E+000 -0.89597481E+000
 -0.31854521E+000 -0.62802964E+000 -0.71000544E+000
 -0.34582692E+000 -0.68150943E+000 -0.64494080E+000
 -0.38865460E+000 -0.76611975E+000 -0.51186731E+000
