# vtk DataFile Version 2.0
BldPointCP.BldB
ASCII
 
DATASET POLYDATA
POINTS 9 double
  0.50068261E+001  0.10315787E+002  0.10634913E+003
  0.12262885E+002  0.25289154E+002  0.94567937E+002
  0.18057636E+002  0.37237383E+002  0.82333977E+002
  0.21978975E+002  0.45322579E+002  0.70078218E+002
  0.23244783E+002  0.47933390E+002  0.58092075E+002
  0.21977196E+002  0.45319236E+002  0.46106374E+002
  0.18055561E+002  0.37233177E+002  0.33850509E+002
  0.12261299E+002  0.25285714E+002  0.21613536E+002
  0.50011055E+001  0.10313314E+002  0.98313283E+001
  
POINT_DATA 9
SCALARS Gamma_LL double
LOOKUP_TABLE default
  0.15998965E+002
  0.90064370E+001
  0.60544767E+001
  0.73006150E+001
  0.85765774E+001
  0.79693996E+001
  0.72480192E+001
  0.96793371E+001
  0.99123629E+001
VECTORS Vind_CP double
 -0.96938735E-002 -0.76247568E-002 -0.37977868E-001
 -0.68517965E-002 -0.10489700E-001 -0.15742312E-001
 -0.39493325E-002 -0.78268653E-002 -0.46209365E-002
 -0.87482892E-002 -0.21819269E-001 -0.69339494E-002
 -0.14248802E-001 -0.35772227E-001  0.19835017E-004
 -0.10347630E-001 -0.25555470E-001  0.89563355E-002
 -0.61918089E-002 -0.13688420E-001  0.96293684E-002
 -0.94488605E-002 -0.17779674E-001  0.20078283E-001
 -0.95726735E-002 -0.80220311E-002  0.23421782E-001
VECTORS Vtot_CP double
  0.35304154E+002 -0.91933616E+001  0.37780007E+000
  0.62428509E+002 -0.22915658E+002  0.91834000E-001
  0.83760646E+002 -0.33897897E+002 -0.52278489E+000
  0.98461595E+002 -0.40581304E+002 -0.32413736E+000
  0.10335470E+003 -0.42465460E+002  0.40009596E-003
  0.98615770E+002 -0.40286144E+002  0.26775803E+000
  0.83965077E+002 -0.33416183E+002  0.44655150E+000
  0.62599622E+002 -0.22570193E+002  0.66619842E-001
  0.35781871E+002 -0.90317159E+001 -0.18006397E+000
VECTORS Vstr_CP double
 -0.18113848E+002  0.91857368E+001 -0.41577793E+000
 -0.45235361E+002  0.22905169E+002 -0.10757631E+000
 -0.66564595E+002  0.33890070E+002  0.51816395E+000
 -0.81270343E+002  0.40559485E+002  0.31720341E+000
 -0.86168954E+002  0.42429688E+002 -0.38026094E-003
 -0.81426118E+002  0.40260588E+002 -0.25880169E+000
 -0.66771269E+002  0.33402494E+002 -0.43692213E+000
 -0.45409071E+002  0.22552414E+002 -0.46541559E-001
 -0.18591444E+002  0.90236939E+001  0.20348575E+000
VECTORS Vwnd_CP double
  0.17200000E+002  0.00000000E+000  0.00000000E+000
  0.17200000E+002  0.00000000E+000  0.00000000E+000
  0.17200000E+002  0.00000000E+000  0.00000000E+000
  0.17200000E+002  0.00000000E+000  0.00000000E+000
  0.17200000E+002  0.00000000E+000  0.00000000E+000
  0.17200000E+002  0.00000000E+000  0.00000000E+000
  0.17200000E+002  0.00000000E+000  0.00000000E+000
  0.17200000E+002  0.00000000E+000  0.00000000E+000
  0.17200000E+002  0.00000000E+000  0.00000000E+000
VECTORS Tangent double
  0.75415166E+000 -0.65670028E+000  0.11897928E-003
  0.89949807E+000 -0.43692470E+000  0.16700582E-003
  0.89999992E+000 -0.43589001E+000  0.20537347E-003
  0.89994686E+000 -0.43599959E+000  0.83669747E-004
  0.89984309E+000 -0.43621372E+000 -0.47256810E-004
  0.90004026E+000 -0.43580671E+000 -0.17800569E-003
  0.89997785E+000 -0.43593561E+000 -0.71573328E-004
  0.89972659E+000 -0.43645397E+000  0.30538088E-004
  0.89973605E+000 -0.43643430E+000  0.37206886E-003
VECTORS Normal double
  0.34511314E+000  0.39648051E+000  0.85070566E+000
  0.28141796E+000  0.57964822E+000  0.76472993E+000
  0.30930303E+000  0.63896244E+000  0.70431430E+000
  0.39069446E+000  0.80651768E+000  0.44371959E+000
  0.43621370E+000  0.89984307E+000 -0.23172917E-003
  0.39045303E+000  0.80655587E+000 -0.44386265E+000
  0.30943888E+000  0.63894424E+000 -0.70427114E+000
  0.28133523E+000  0.57990409E+000 -0.76456637E+000
  0.22372755E+000  0.46049574E+000 -0.85900504E+000
VECTORS Orth double
  0.55870582E+000  0.64152003E+000 -0.52564233E+000
  0.33422620E+000  0.68782610E+000 -0.64435092E+000
  0.30713479E+000  0.63381929E+000 -0.70988825E+000
  0.19352904E+000  0.39929136E+000 -0.89616568E+000
 -0.14360716E-003 -0.18790582E-003 -0.99999997E+000
 -0.19358189E+000 -0.39942475E+000 -0.89609481E+000
 -0.30706260E+000 -0.63380628E+000 -0.70993109E+000
 -0.33368032E+000 -0.68790928E+000 -0.64454501E+000
 -0.37472793E+000 -0.77296105E+000 -0.51196699E+000
