# vtk DataFile Version 2.0
BldPointCP.BldB
ASCII
 
DATASET POLYDATA
POINTS 9 double
  0.30266185E+001  0.11136150E+002  0.10627154E+003
  0.70937417E+001  0.27297750E+002  0.94508205E+002
  0.10391079E+002  0.40252186E+002  0.82386798E+002
  0.12609143E+002  0.48896008E+002  0.70121184E+002
  0.13310454E+002  0.51580222E+002  0.58083098E+002
  0.12603093E+002  0.48773693E+002  0.46063924E+002
  0.10378183E+002  0.40129309E+002  0.33778799E+002
  0.70486910E+001  0.27243157E+002  0.21581750E+002
  0.28720362E+001  0.11096234E+002  0.98393103E+001
  
POINT_DATA 9
SCALARS Gamma_LL double
LOOKUP_TABLE default
  0.11001858E+003
  0.48353335E+002
  0.16722724E+002
  0.20917772E+002
  0.42321775E+002
  0.36009231E+002
  0.24257075E+002
  0.34909828E+002
  0.42537994E+002
VECTORS Vind_CP double
  0.73125119E-002 -0.10762501E+000 -0.48329453E+000
 -0.67607224E-001 -0.13833402E+000 -0.19710117E+000
 -0.39653169E-001 -0.91514950E-001 -0.27672958E-001
 -0.63747308E-001 -0.25845757E+000 -0.22669977E-001
 -0.12090837E+000 -0.52012803E+000  0.26925955E-001
 -0.11412297E+000 -0.41498109E+000  0.12024275E+000
 -0.67111598E-001 -0.19320099E+000  0.10938857E+000
 -0.61016321E-001 -0.17594420E+000  0.16746388E+000
 -0.11113456E+000 -0.67430981E-001  0.12000955E+000
VECTORS Vtot_CP double
  0.35062147E+002 -0.57283801E+001  0.23736142E+000
  0.65402034E+002 -0.13621907E+002  0.57765345E+000
  0.89608988E+002 -0.20496482E+002 -0.18799033E+000
  0.10578264E+003 -0.24206372E+002 -0.25254483E+000
  0.11076607E+003 -0.24588405E+002  0.15895705E+000
  0.10538351E+003 -0.23073212E+002  0.47199804E+000
  0.89448065E+002 -0.19288457E+002  0.69209509E+000
  0.66157936E+002 -0.13156045E+002  0.48724878E+000
  0.37076918E+002 -0.52434915E+001  0.12143061E+000
VECTORS Vstr_CP double
 -0.17854834E+002  0.56207551E+001 -0.72065595E+000
 -0.48269641E+002  0.13483573E+002 -0.77475462E+000
 -0.72448641E+002  0.20404967E+002  0.16031737E+000
 -0.88646386E+002  0.23947915E+002  0.22987485E+000
 -0.93686981E+002  0.24068277E+002 -0.13203110E+000
 -0.88297635E+002  0.22658231E+002 -0.35175529E+000
 -0.72315177E+002  0.19095256E+002 -0.58270653E+000
 -0.49018952E+002  0.12980101E+002 -0.31978490E+000
 -0.19988052E+002  0.51760605E+001 -0.14210603E-002
VECTORS Vwnd_CP double
  0.17200000E+002  0.00000000E+000  0.00000000E+000
  0.17200000E+002  0.00000000E+000  0.00000000E+000
  0.17200000E+002  0.00000000E+000  0.00000000E+000
  0.17200000E+002  0.00000000E+000  0.00000000E+000
  0.17200000E+002  0.00000000E+000  0.00000000E+000
  0.17200000E+002  0.00000000E+000  0.00000000E+000
  0.17200000E+002  0.00000000E+000  0.00000000E+000
  0.17200000E+002  0.00000000E+000  0.00000000E+000
  0.17200000E+002  0.00000000E+000  0.00000000E+000
VECTORS Tangent double
  0.86346733E+000 -0.50440378E+000  0.10013385E-002
  0.96532964E+000 -0.26102108E+000 -0.25844376E-002
  0.96976165E+000 -0.24404347E+000 -0.22626094E-002
  0.96959946E+000 -0.24469655E+000 -0.69835660E-003
  0.96702128E+000 -0.25469555E+000 -0.15503982E-003
  0.96797274E+000 -0.25105517E+000 -0.27627550E-003
  0.96911206E+000 -0.24662075E+000 -0.14155690E-003
  0.96804021E+000 -0.25079503E+000  0.74628952E-004
  0.96771081E+000 -0.25202174E+000  0.45639147E-002
VECTORS Normal double
  0.26808824E+000  0.46060860E+000  0.84614917E+000
  0.16815415E+000  0.61424777E+000  0.77098888E+000
  0.17377861E+000  0.68397968E+000  0.70850038E+000
  0.22115856E+000  0.87510272E+000  0.43044642E+000
  0.25468848E+000  0.96699863E+000 -0.68873638E-002
  0.22582336E+000  0.87116830E+000 -0.43596972E+000
  0.17508455E+000  0.68840998E+000 -0.70387293E+000
  0.16053537E+000  0.61941954E+000 -0.76847110E+000
  0.13293092E+000  0.49487593E+000 -0.85873580E+000
VECTORS Orth double
  0.42726206E+000  0.73035371E+000 -0.53294520E+000
  0.19965687E+000  0.74469301E+000 -0.63684336E+000
  0.17135731E+000  0.68746970E+000 -0.70570680E+000
  0.10471762E+000  0.41751506E+000 -0.90261586E+000
 -0.19041042E-002 -0.66207405E-002 -0.99997627E+000
 -0.10969313E+000 -0.42194441E+000 -0.89996129E+000
 -0.17368712E+000 -0.68210696E+000 -0.71032589E+000
 -0.19268250E+000 -0.74392290E+000 -0.63988450E+000
 -0.21416152E+000 -0.83161461E+000 -0.51239827E+000
