# vtk DataFile Version 2.0
BldPointCP.BldB
ASCII
 
DATASET POLYDATA
POINTS 9 double
  0.46444203E+001  0.10493864E+002  0.10633852E+003
  0.11348908E+002  0.25729765E+002  0.94563049E+002
  0.16713656E+002  0.37891788E+002  0.82344933E+002
  0.20339046E+002  0.46105501E+002  0.70085607E+002
  0.21504161E+002  0.48747540E+002  0.58091709E+002
  0.20332802E+002  0.46092043E+002  0.46100370E+002
  0.16707410E+002  0.37875321E+002  0.33840502E+002
  0.11344231E+002  0.25718797E+002  0.21611339E+002
  0.46259566E+001  0.10487004E+002  0.98347235E+001
  
POINT_DATA 9
SCALARS Gamma_LL double
LOOKUP_TABLE default
  0.58178887E+002
  0.30139075E+002
  0.17187148E+002
  0.23631924E+002
  0.30994776E+002
  0.27590611E+002
  0.22857827E+002
  0.31424827E+002
  0.33291473E+002
VECTORS Vind_CP double
 -0.12856035E-001 -0.34540837E-001 -0.17694499E+000
 -0.23480185E-001 -0.35609569E-001 -0.57765936E-001
 -0.11101426E-001 -0.23471902E-001 -0.85129786E-002
 -0.30508662E-001 -0.88917313E-001 -0.23596591E-001
 -0.58628356E-001 -0.16331301E+000  0.10238620E-002
 -0.40039083E-001 -0.11226989E+000  0.37032568E-001
 -0.21217260E-001 -0.51653874E-001  0.33105832E-001
 -0.31973183E-001 -0.65194342E-001  0.71243963E-001
 -0.32305929E-001 -0.31503113E-001  0.87494500E-001
VECTORS Vtot_CP double
  0.35234557E+002 -0.86049150E+001  0.41064650E+000
  0.63077007E+002 -0.21486598E+002  0.20040991E+000
  0.84919336E+002 -0.31904524E+002 -0.68728107E+000
  0.99999032E+002 -0.37733386E+002 -0.45745065E+000
  0.10506914E+003 -0.39047857E+002  0.53906261E-001
  0.10020071E+003 -0.37135291E+002  0.43597414E+000
  0.85183735E+002 -0.31016611E+002  0.69366905E+000
  0.63362847E+002 -0.20974916E+002  0.25835620E+000
  0.36064885E+002 -0.83685444E+001 -0.75076300E-001
VECTORS Vstr_CP double
 -0.18047413E+002  0.85703741E+001 -0.58759148E+000
 -0.45900487E+002  0.21450988E+002 -0.25817585E+000
 -0.67730438E+002  0.31881052E+002  0.67876810E+000
 -0.82829540E+002  0.37644468E+002  0.43385406E+000
 -0.87927766E+002  0.38884544E+002 -0.52882399E-001
 -0.83040748E+002  0.37023021E+002 -0.39894157E+000
 -0.68004952E+002  0.30964957E+002 -0.66056322E+000
 -0.46194820E+002  0.20909721E+002 -0.18711224E+000
 -0.18897191E+002  0.83370412E+001  0.16257080E+000
VECTORS Vwnd_CP double
  0.17200000E+002  0.00000000E+000  0.00000000E+000
  0.17200000E+002  0.00000000E+000  0.00000000E+000
  0.17200000E+002  0.00000000E+000  0.00000000E+000
  0.17200000E+002  0.00000000E+000  0.00000000E+000
  0.17200000E+002  0.00000000E+000  0.00000000E+000
  0.17200000E+002  0.00000000E+000  0.00000000E+000
  0.17200000E+002  0.00000000E+000  0.00000000E+000
  0.17200000E+002  0.00000000E+000  0.00000000E+000
  0.17200000E+002  0.00000000E+000  0.00000000E+000
VECTORS Tangent double
  0.77652828E+000 -0.63008239E+000  0.14156671E-003
  0.91421711E+000 -0.40522473E+000  0.35631683E-004
  0.91564141E+000 -0.40199594E+000  0.25640426E-003
  0.91538863E+000 -0.40257127E+000  0.15713076E-003
  0.91472995E+000 -0.40406574E+000 -0.50070010E-004
  0.91516634E+000 -0.40307633E+000 -0.21349361E-003
  0.91538725E+000 -0.40257443E+000 -0.73362751E-004
  0.91480398E+000 -0.40389809E+000  0.66455808E-004
  0.91474901E+000 -0.40402146E+000  0.95951426E-003
VECTORS Normal double
  0.33169447E+000  0.40897903E+000  0.85012642E+000
  0.26053898E+000  0.58786263E+000  0.76585702E+000
  0.28505381E+000  0.64972736E+000  0.70469759E+000
  0.36102855E+000  0.82109907E+000  0.44210260E+000
  0.40406556E+000  0.91472964E+000 -0.84145147E-003
  0.36131714E+000  0.82058855E+000 -0.44281413E+000
  0.28571546E+000  0.64979776E+000 -0.70436464E+000
  0.26002276E+000  0.58880940E+000 -0.76530494E+000
  0.20767430E+000  0.46815766E+000 -0.85889452E+000
VECTORS Orth double
  0.53570759E+000  0.66010025E+000 -0.52657862E+000
  0.31036515E+000  0.70015030E+000 -0.64301091E+000
  0.28345216E+000  0.64517721E+000 -0.70950775E+000
  0.17810683E+000  0.40463897E+000 -0.89696447E+000
 -0.38580223E-003 -0.74946929E-003 -0.99999964E+000
 -0.17866309E+000 -0.40517145E+000 -0.89661341E+000
 -0.28360687E+000 -0.64474545E+000 -0.70983832E+000
 -0.30906608E+000 -0.70012129E+000 -0.64366788E+000
 -0.34656261E+000 -0.78587217E+000 -0.51215163E+000
