# vtk DataFile Version 2.0
BldPointCP.BldA
ASCII
 
DATASET POLYDATA
POINTS 9 double
 -0.11253064E+002 -0.18472076E+001  0.10641304E+003
 -0.27701949E+002 -0.45622981E+001  0.94683689E+002
 -0.40766274E+002 -0.67399603E+001  0.82422115E+002
 -0.49587784E+002 -0.82230163E+001  0.70139869E+002
 -0.52447336E+002 -0.87088286E+001  0.58155267E+002
 -0.49593062E+002 -0.82349590E+001  0.46171362E+002
 -0.40771478E+002 -0.67511314E+001  0.33885971E+002
 -0.27718707E+002 -0.45680807E+001  0.21611309E+002
 -0.11309906E+002 -0.18595744E+001  0.98264444E+001
  
POINT_DATA 9
SCALARS Gamma_LL double
LOOKUP_TABLE default
 -0.48893020E+001
 -0.15591898E+003
 -0.13704391E+003
 -0.12410888E+003
 -0.12185218E+003
 -0.11659652E+003
 -0.12280312E+003
 -0.14944531E+003
 -0.73346215E+002
VECTORS Vind_CP double
  0.73470997E-001 -0.20983336E+000  0.91671977E-001
 -0.38087858E+000  0.40262487E-002  0.38920058E+000
 -0.45018715E+000 -0.21185857E-001  0.32049533E+000
 -0.62538455E+000 -0.52083732E-001  0.20404445E+000
 -0.74247246E+000 -0.71358084E-001  0.35331144E-002
 -0.58644726E+000 -0.55947565E-001 -0.17858786E+000
 -0.39964012E+000 -0.25052143E-001 -0.27415233E+000
 -0.39559043E+000 -0.18151001E-001 -0.38441122E+000
 -0.15147474E+000 -0.12588074E-001 -0.62712050E-001
VECTORS Vtot_CP double
  0.12488390E+002  0.20100736E+002 -0.12584117E+001
  0.78581776E+001  0.50702136E+002 -0.24103869E+001
  0.32117680E+001  0.75087547E+002 -0.22186776E+001
 -0.63784795E+000  0.91787649E+002 -0.16238561E+001
 -0.18930250E+001  0.97375364E+002 -0.16750894E+001
 -0.50219482E+000  0.91975473E+002 -0.16625005E+001
  0.34628866E+001  0.75257552E+002 -0.10010591E+001
  0.83425908E+001  0.50781185E+002 -0.44634081E+000
  0.13673499E+002  0.20577630E+002 -0.57149826E-001
VECTORS Vstr_CP double
  0.47850815E+001 -0.20310570E+002  0.13500837E+001
  0.89609438E+001 -0.50698110E+002  0.27995875E+001
  0.13538045E+002 -0.75108733E+002  0.25391730E+001
  0.17212463E+002 -0.91839733E+002  0.18279006E+001
  0.18350553E+002 -0.97446722E+002  0.16786225E+001
  0.17115748E+002 -0.92031421E+002  0.14839127E+001
  0.13337473E+002 -0.75282604E+002  0.72690675E+000
  0.84618188E+001 -0.50799336E+002  0.61929597E-001
  0.33750258E+001 -0.20590218E+002 -0.55622235E-002
VECTORS Vwnd_CP double
  0.17200000E+002  0.00000000E+000  0.00000000E+000
  0.17200000E+002  0.00000000E+000  0.00000000E+000
  0.17200000E+002  0.00000000E+000  0.00000000E+000
  0.17200000E+002  0.00000000E+000  0.00000000E+000
  0.17200000E+002  0.00000000E+000  0.00000000E+000
  0.17200000E+002  0.00000000E+000  0.00000000E+000
  0.17200000E+002  0.00000000E+000  0.00000000E+000
  0.17200000E+002  0.00000000E+000  0.00000000E+000
  0.17200000E+002  0.00000000E+000  0.00000000E+000
VECTORS Tangent double
 -0.81890462E+000  0.57391908E+000 -0.34799566E-002
 -0.16598768E+000  0.98612760E+000  0.66461754E-003
 -0.16561126E+000  0.98619093E+000  0.60204913E-003
 -0.16110922E+000  0.98693648E+000 -0.45596162E-003
 -0.15889986E+000  0.98729468E+000 -0.22897137E-003
 -0.15786801E+000  0.98746002E+000 -0.63382279E-003
 -0.15807001E+000  0.98742784E+000 -0.35254082E-003
 -0.15956516E+000  0.98718736E+000  0.25638659E-003
 -0.16083992E+000  0.98698049E+000  0.20354832E-003
VECTORS Normal double
 -0.37091582E+000 -0.52460007E+000  0.76630035E+000
 -0.63513967E+000 -0.10742395E+000  0.76489064E+000
 -0.70361180E+000 -0.11858540E+000  0.70061969E+000
 -0.88483301E+000 -0.14423699E+000  0.44301945E+000
 -0.98729461E+000 -0.15889973E+000  0.48127899E-003
 -0.88528101E+000 -0.14181665E+000 -0.44290582E+000
 -0.70467204E+000 -0.11305582E+000 -0.70046820E+000
 -0.63715290E+000 -0.10278856E+000 -0.76385254E+000
 -0.50505527E+000 -0.82127425E-001 -0.85917068E+000
VECTORS Orth double
 -0.43796881E+000 -0.62881767E+000 -0.64247308E+000
 -0.75435117E+000 -0.12654030E+000 -0.64415981E+000
 -0.69101617E+000 -0.11560690E+000 -0.71353465E+000
 -0.43716629E+000 -0.71777967E-001 -0.89651188E+000
 -0.43878069E-003 -0.30253736E-003 -0.99999986E+000
  0.43744168E+000  0.69359547E-001 -0.89656792E+000
  0.69170166E+000  0.11047459E+000 -0.71368353E+000
  0.75403922E+000  0.12204761E+000 -0.64539076E+000
  0.84796798E+000  0.13829174E+000 -0.51168907E+000
