# vtk DataFile Version 2.0
BldPointCP.BldA
ASCII
 
DATASET POLYDATA
POINTS 9 double
 -0.11372643E+002 -0.12351489E+001  0.10637715E+003
 -0.27921029E+002 -0.30401356E+001  0.94611610E+002
 -0.41100612E+002 -0.44852142E+001  0.82360545E+002
 -0.50016879E+002 -0.54676535E+001  0.70096609E+002
 -0.52902307E+002 -0.57875314E+001  0.58114393E+002
 -0.50018150E+002 -0.54728332E+001  0.46132840E+002
 -0.41102470E+002 -0.44912642E+001  0.33866887E+002
 -0.27927724E+002 -0.30435196E+001  0.21611400E+002
 -0.11394204E+002 -0.12399919E+001  0.98268407E+001
  
POINT_DATA 9
SCALARS Gamma_LL double
LOOKUP_TABLE default
 -0.27044752E+001
 -0.78613103E+002
 -0.68631105E+002
 -0.66750727E+002
 -0.68109364E+002
 -0.65008810E+002
 -0.66824523E+002
 -0.78131689E+002
 -0.39677887E+002
VECTORS Vind_CP double
  0.22440119E-001 -0.80737786E-001  0.19110879E-001
 -0.17171741E+000 -0.31468715E-003  0.17330631E+000
 -0.17596526E+000 -0.75589999E-002  0.12540216E+000
 -0.25407807E+000 -0.14804588E-001  0.85905963E-001
 -0.32259269E+000 -0.20015367E-001  0.46247923E-003
 -0.24715260E+000 -0.16387607E-001 -0.81956989E-001
 -0.16902467E+000 -0.90865770E-002 -0.12019059E+000
 -0.17822755E+000 -0.68683184E-002 -0.17569033E+000
 -0.68171977E-001 -0.57850422E-002 -0.30020297E-001
VECTORS Vtot_CP double
  0.14060086E+002  0.20417084E+002 -0.91739694E+000
  0.11038613E+002  0.50830747E+002 -0.16533565E+001
  0.79703992E+001  0.75166209E+002 -0.14267052E+001
  0.55733557E+001  0.91749445E+002 -0.10254302E+001
  0.48163954E+001  0.97222547E+002 -0.10450985E+001
  0.56628076E+001  0.91898101E+002 -0.10240110E+001
  0.82224014E+001  0.75339222E+002 -0.52567345E+000
  0.11447483E+002  0.50936331E+002 -0.13736652E+000
  0.14890901E+002  0.20667470E+002 -0.16571334E-001
VECTORS Vstr_CP double
  0.31623545E+001 -0.20497822E+002  0.93650782E+000
  0.59896700E+001 -0.50831062E+002  0.18266628E+001
  0.90536356E+001 -0.75173768E+002  0.15521073E+001
  0.11372566E+002 -0.91764250E+002  0.11113361E+001
  0.12061012E+002 -0.97242562E+002  0.10455610E+001
  0.11290040E+002 -0.91914488E+002  0.94205399E+000
  0.88085739E+001 -0.75348309E+002  0.40548286E+000
  0.55742897E+001 -0.50943199E+002 -0.38323815E-001
  0.22409272E+001 -0.20673256E+002 -0.13448963E-001
VECTORS Vwnd_CP double
  0.17200000E+002  0.00000000E+000  0.00000000E+000
  0.17200000E+002  0.00000000E+000  0.00000000E+000
  0.17200000E+002  0.00000000E+000  0.00000000E+000
  0.17200000E+002  0.00000000E+000  0.00000000E+000
  0.17200000E+002  0.00000000E+000  0.00000000E+000
  0.17200000E+002  0.00000000E+000  0.00000000E+000
  0.17200000E+002  0.00000000E+000  0.00000000E+000
  0.17200000E+002  0.00000000E+000  0.00000000E+000
  0.17200000E+002  0.00000000E+000  0.00000000E+000
VECTORS Tangent double
 -0.78619624E+000  0.61797604E+000 -0.10397511E-002
 -0.11091910E+000  0.99382908E+000  0.84198085E-003
 -0.11125458E+000  0.99379138E+000  0.10509989E-002
 -0.10913679E+000  0.99402670E+000  0.28861828E-003
 -0.10795530E+000  0.99415572E+000 -0.25270762E-003
 -0.10687796E+000  0.99427160E+000 -0.10436714E-002
 -0.10637650E+000  0.99432570E+000 -0.66657248E-003
 -0.10700506E+000  0.99425848E+000  0.96825994E-005
 -0.10767111E+000  0.99418657E+000  0.43393647E-004
VECTORS Normal double
 -0.39995789E+000 -0.50754699E+000  0.76317084E+000
 -0.64096060E+000 -0.72183630E-001  0.76417213E+000
 -0.70687998E+000 -0.79878217E-001  0.70280877E+000
 -0.89080003E+000 -0.97932098E-001  0.44371682E+000
 -0.99415574E+000 -0.10795526E+000  0.16143779E-003
 -0.89095560E+000 -0.96237960E-001 -0.44377514E+000
 -0.70750545E+000 -0.76162453E-001 -0.70259186E+000
 -0.64159491E+000 -0.69042920E-001 -0.76393000E+000
 -0.50875231E+000 -0.55060737E-001 -0.85915040E+000
VECTORS Orth double
 -0.47109357E+000 -0.60041791E+000 -0.64619593E+000
 -0.75951726E+000 -0.84221608E-001 -0.64501182E+000
 -0.69852925E+000 -0.77447763E-001 -0.71137805E+000
 -0.44109463E+000 -0.48168728E-001 -0.89616701E+000
 -0.13321319E-003 -0.26865879E-003 -0.99999996E+000
  0.44133346E+000  0.46499916E-001 -0.89613756E+000
  0.69865591E+000  0.74267662E-001 -0.71159275E+000
  0.75954321E+000  0.81750591E-001 -0.64529912E+000
  0.85415339E+000  0.92527756E-001 -0.51172316E+000
