# vtk DataFile Version 2.0

ASCII
 
DATASET POLYDATA
POINTS 80 double
  0.35490919E-001  0.68911999E-002  0.11318187E+003
 -0.20420339E+002 -0.22202005E+001  0.10098038E+003
 -0.34833636E+002 -0.37957845E+001  0.88742181E+002
 -0.46875320E+002 -0.51204895E+001  0.76480182E+002
 -0.52901434E+002 -0.57864169E+001  0.64235260E+002
 -0.52903180E+002 -0.57886459E+001  0.51993527E+002
 -0.46876074E+002 -0.51288829E+001  0.39749988E+002
 -0.34836691E+002 -0.37992914E+001  0.27482277E+002
 -0.20430981E+002 -0.22234513E+001  0.15241063E+002
  0.16171570E-003  0.40448781E-004  0.30001114E+001
 -0.44379977E+001 -0.48078639E+000  0.11317352E+003
 -0.20905674E+002  0.21652756E+001  0.10098217E+003
 -0.35181205E+002 -0.71848469E+000  0.88746710E+002
 -0.47145474E+002 -0.26799273E+001  0.76481489E+002
 -0.53145450E+002 -0.35438778E+001  0.64235313E+002
 -0.53150945E+002 -0.35023964E+001  0.51992322E+002
 -0.47152003E+002 -0.25432755E+001  0.39746079E+002
 -0.35201777E+002 -0.39318299E+000  0.27482170E+002
 -0.20913977E+002  0.22505532E+001  0.15241247E+002
 -0.48588292E+000  0.44737146E+001  0.30003179E+001
 -0.42742726E+001 -0.40135017E+000  0.11317175E+003
 -0.20692307E+002  0.25416301E+001  0.10098568E+003
 -0.35018557E+002 -0.84455202E-001  0.88748728E+002
 -0.47017432E+002 -0.18300295E+001  0.76483366E+002
 -0.53033968E+002 -0.25856553E+001  0.64236264E+002
 -0.53038687E+002 -0.25440918E+001  0.51991403E+002
 -0.47021575E+002 -0.16933049E+001  0.39744114E+002
 -0.35033334E+002  0.24115736E+000  0.27480044E+002
 -0.20699312E+002  0.26271426E+001  0.15240251E+002
 -0.23427248E+000  0.44811776E+001  0.30015264E+001
 -0.41225698E+001 -0.32260830E+000  0.11317459E+003
 -0.20473722E+002  0.29188538E+001  0.10097067E+003
 -0.34842195E+002  0.55610425E+000  0.88730716E+002
 -0.46882387E+002 -0.96685795E+000  0.76473378E+002
 -0.52914513E+002 -0.16100302E+001  0.64227179E+002
 -0.52917763E+002 -0.15673514E+001  0.51982067E+002
 -0.46884767E+002 -0.82771489E+000  0.39735903E+002
 -0.34853446E+002  0.88233714E+000  0.27480371E+002
 -0.20477730E+002  0.30051109E+001  0.15240300E+002
  0.18325399E-001  0.44876598E+001  0.30014770E+001
 -0.39663242E+001 -0.24296652E+000  0.11317723E+003
 -0.20246670E+002  0.32945198E+001  0.10095766E+003
 -0.34652648E+002  0.11945328E+001  0.88715965E+002
 -0.46726508E+002 -0.10660248E+000  0.76464583E+002
 -0.52771312E+002 -0.63793686E+000  0.64219735E+002
 -0.52773331E+002 -0.59446888E+000  0.51975899E+002
 -0.46727814E+002  0.34663469E-001  0.39731128E+002
 -0.34660641E+002  0.15214910E+001  0.27481997E+002
 -0.20248660E+002  0.33813988E+001  0.15240828E+002
  0.27117103E+000  0.44926755E+001  0.30017475E+001
 -0.38052621E+001 -0.16267407E+000  0.11317904E+003
 -0.20011332E+002  0.36685614E+001  0.10094817E+003
 -0.34450004E+002  0.18306040E+001  0.88705111E+002
 -0.46551242E+002  0.75035325E+000  0.76458048E+002
 -0.52606074E+002  0.33019316E+000  0.64214650E+002
 -0.52607244E+002  0.37404213E+000  0.51972536E+002
 -0.46552520E+002  0.89343287E+000  0.39729181E+002
 -0.34455996E+002  0.21583461E+001  0.27483933E+002
 -0.20012562E+002  0.37559475E+001  0.15241490E+002
  0.52423973E+000  0.44962878E+001  0.30018391E+001
 -0.36390647E+001 -0.81937315E-001  0.11317980E+003
 -0.19768502E+002  0.40408927E+001  0.10094293E+003
 -0.34236006E+002  0.24642254E+001  0.88699335E+002
 -0.46357524E+002  0.16036644E+001  0.76454132E+002
 -0.52420035E+002  0.12939635E+001  0.64211998E+002
 -0.52420713E+002  0.13378617E+001  0.51971593E+002
 -0.46359021E+002  0.17480400E+001  0.39729457E+002
 -0.34241539E+002  0.27927698E+001  0.27483592E+002
 -0.19769498E+002  0.41286331E+001  0.15242086E+002
  0.77733187E+000  0.44984430E+001  0.30019504E+001
 -0.34686791E+001 -0.96037037E-003  0.11317991E+003
 -0.19519655E+002  0.44116887E+001  0.10094078E+003
 -0.34012995E+002  0.30960199E+001  0.88698114E+002
 -0.46147640E+002  0.24541963E+001  0.76452470E+002
 -0.52215035E+002  0.22541472E+001  0.64211088E+002
 -0.52215107E+002  0.22980192E+001  0.51971783E+002
 -0.46147667E+002  0.25990129E+001  0.39730417E+002
 -0.34012862E+002  0.34247165E+001  0.27484816E+002
 -0.19519552E+002  0.44994936E+001  0.15242461E+002
  0.10303522E+001  0.44991457E+001  0.30020679E+001
  
POLYGONS 63 315
      4      0      1     11     10
      4      1      2     12     11
      4      2      3     13     12
      4      3      4     14     13
      4      4      5     15     14
      4      5      6     16     15
      4      6      7     17     16
      4      7      8     18     17
      4      8      9     19     18
      4     10     11     21     20
      4     11     12     22     21
      4     12     13     23     22
      4     13     14     24     23
      4     14     15     25     24
      4     15     16     26     25
      4     16     17     27     26
      4     17     18     28     27
      4     18     19     29     28
      4     20     21     31     30
      4     21     22     32     31
      4     22     23     33     32
      4     23     24     34     33
      4     24     25     35     34
      4     25     26     36     35
      4     26     27     37     36
      4     27     28     38     37
      4     28     29     39     38
      4     30     31     41     40
      4     31     32     42     41
      4     32     33     43     42
      4     33     34     44     43
      4     34     35     45     44
      4     35     36     46     45
      4     36     37     47     46
      4     37     38     48     47
      4     38     39     49     48
      4     40     41     51     50
      4     41     42     52     51
      4     42     43     53     52
      4     43     44     54     53
      4     44     45     55     54
      4     45     46     56     55
      4     46     47     57     56
      4     47     48     58     57
      4     48     49     59     58
      4     50     51     61     60
      4     51     52     62     61
      4     52     53     63     62
      4     53     54     64     63
      4     54     55     65     64
      4     55     56     66     65
      4     56     57     67     66
      4     57     58     68     67
      4     58     59     69     68
      4     60     61     71     70
      4     61     62     72     71
      4     62     63     73     72
      4     63     64     74     73
      4     64     65     75     74
      4     65     66     76     75
      4     66     67     77     76
      4     67     68     78     77
      4     68     69     79     78
  
CELL_DATA 63
SCALARS Gamma double
LOOKUP_TABLE default
 -0.27044752E+001
 -0.78613103E+002
 -0.68631105E+002
 -0.66750727E+002
 -0.68109364E+002
 -0.65008810E+002
 -0.66824523E+002
 -0.78131689E+002
 -0.39677887E+002
 -0.27044752E+001
 -0.78613103E+002
 -0.68631105E+002
 -0.66750727E+002
 -0.68109364E+002
 -0.65008810E+002
 -0.66824523E+002
 -0.78131689E+002
 -0.39677887E+002
 -0.17915563E+001
 -0.48619196E+002
 -0.42402214E+002
 -0.41280658E+002
 -0.42145739E+002
 -0.40220134E+002
 -0.41313394E+002
 -0.48317845E+002
 -0.24714688E+002
 -0.81856091E+000
 -0.21541708E+002
 -0.18744617E+002
 -0.18631326E+002
 -0.19216129E+002
 -0.18418026E+002
 -0.18723285E+002
 -0.21655029E+002
 -0.11135103E+002
 -0.16983547E+000
 -0.43158211E+001
 -0.37588562E+001
 -0.38076947E+001
 -0.39630860E+001
 -0.38217750E+001
 -0.38456670E+001
 -0.43977668E+001
 -0.22764939E+001
 -0.20358333E-002
 -0.50129804E-001
 -0.43769850E-001
 -0.45116199E-001
 -0.47341231E-001
 -0.45934438E-001
 -0.45782683E-001
 -0.51804677E-001
 -0.27059359E-001
 -0.00000000E+000
 -0.00000000E+000
 -0.00000000E+000
 -0.00000000E+000
 -0.00000000E+000
 -0.00000000E+000
 -0.00000000E+000
 -0.00000000E+000
 -0.00000000E+000
POINT_DATA 80
VECTORS Uconv double
  0.00000000E+000  0.00000000E+000  0.00000000E+000
  0.00000000E+000  0.00000000E+000  0.00000000E+000
  0.00000000E+000  0.00000000E+000  0.00000000E+000
  0.00000000E+000  0.00000000E+000  0.00000000E+000
  0.00000000E+000  0.00000000E+000  0.00000000E+000
  0.00000000E+000  0.00000000E+000  0.00000000E+000
  0.00000000E+000  0.00000000E+000  0.00000000E+000
  0.00000000E+000  0.00000000E+000  0.00000000E+000
  0.00000000E+000  0.00000000E+000  0.00000000E+000
  0.00000000E+000  0.00000000E+000  0.00000000E+000
  0.00000000E+000  0.00000000E+000  0.00000000E+000
  0.00000000E+000  0.00000000E+000  0.00000000E+000
  0.00000000E+000  0.00000000E+000  0.00000000E+000
  0.00000000E+000  0.00000000E+000  0.00000000E+000
  0.00000000E+000  0.00000000E+000  0.00000000E+000
  0.00000000E+000  0.00000000E+000  0.00000000E+000
  0.00000000E+000  0.00000000E+000  0.00000000E+000
  0.00000000E+000  0.00000000E+000  0.00000000E+000
  0.00000000E+000  0.00000000E+000  0.00000000E+000
  0.00000000E+000  0.00000000E+000  0.00000000E+000
  0.17166475E+002 -0.57370257E-001 -0.17714242E+000
  0.17097788E+002  0.17738998E-001  0.35081914E+000
  0.16988256E+002  0.27055171E-001  0.20171867E+000
  0.16866461E+002  0.33438588E-001  0.18774038E+000
  0.16669150E+002  0.45369669E-001  0.95105446E-001
  0.16671900E+002  0.44337601E-001 -0.91980404E-001
  0.16858727E+002  0.31100572E-001 -0.19650260E+000
  0.16981490E+002  0.26350051E-001 -0.21276466E+000
  0.17073949E+002  0.27662189E-001 -0.99600516E-001
  0.17095631E+002 -0.56251288E-001  0.12084942E+000
  0.17164636E+002 -0.58375045E-001 -0.18093590E+000
  0.17118163E+002  0.22368254E-002  0.29323807E+000
  0.17050870E+002  0.79327120E-002  0.13795130E+000
  0.16998082E+002  0.11323678E-001  0.10611497E+000
  0.16881171E+002  0.18378049E-001  0.53321274E-001
  0.16883295E+002  0.17884700E-001 -0.52514538E-001
  0.16990845E+002  0.10436959E-001 -0.11456198E+000
  0.17047262E+002  0.78447252E-002 -0.14602952E+000
  0.17099805E+002  0.13405172E-001 -0.74896441E-001
  0.17090661E+002 -0.59914264E-001  0.12965755E+000
  0.17162670E+002 -0.59399169E-001 -0.18482222E+000
  0.17135405E+002 -0.12020991E-001  0.22358371E+000
  0.17114569E+002 -0.12514827E-001  0.72503149E-001
  0.17137497E+002 -0.15320568E-001  0.17850163E-001
  0.17131555E+002 -0.19365210E-001  0.30344008E-002
  0.17131322E+002 -0.19376610E-001 -0.39927668E-002
  0.17130230E+002 -0.14914144E-001 -0.25622347E-001
  0.17113804E+002 -0.12361166E-001 -0.77899400E-001
  0.17123444E+002 -0.10991783E-003 -0.54010756E-001
  0.17085354E+002 -0.62999464E-001  0.13842614E+000
  0.17160573E+002 -0.60450303E-001 -0.18881032E+000
  0.17149707E+002 -0.22788177E-001  0.15228057E+000
  0.17177284E+002 -0.33563970E-001  0.73979727E-002
  0.17267186E+002 -0.42897860E-001 -0.67154858E-001
  0.17370708E+002 -0.61250033E-001 -0.47417960E-001
  0.17367100E+002 -0.60657967E-001  0.45667788E-001
  0.17260696E+002 -0.41848260E-001  0.60952135E-001
  0.17179014E+002 -0.33420739E-001 -0.10423190E-001
  0.17144843E+002 -0.12757320E-001 -0.36316796E-001
  0.17079697E+002 -0.65502899E-001  0.14707947E+000
  0.17158336E+002 -0.61530000E-001 -0.19290442E+000
  0.17163597E+002 -0.32993896E-001  0.91251744E-001
  0.17237425E+002 -0.54363435E-001 -0.55769665E-001
  0.17374225E+002 -0.68157131E-001 -0.14079809E+000
  0.17555441E+002 -0.98759452E-001 -0.89643134E-001
  0.17549452E+002 -0.97666567E-001  0.87346268E-001
  0.17369877E+002 -0.67234387E-001  0.13742889E+000
  0.17107896E+002 -0.43809659E-001 -0.75597344E-001
  0.17163726E+002 -0.24520246E-001 -0.17855495E-001
  0.17073682E+002 -0.67434780E-001  0.15554687E+000
  0.17155956E+002 -0.62625379E-001 -0.19707740E+000
  0.17171901E+002 -0.39297603E-001  0.15636322E-001
  0.17164724E+002 -0.59128738E-001  0.99338596E-002
  0.17452620E+002 -0.88318067E-001 -0.19827706E+000
  0.17665732E+002 -0.12582364E+000 -0.11802657E+000
  0.17658629E+002 -0.12459390E+000  0.11545281E+000
  0.17452139E+002 -0.88956837E-001  0.19885363E+000
  0.17175944E+002 -0.62187591E-001 -0.68234657E-002
  0.17181228E+002 -0.35671490E-001  0.45332233E-003
  0.17067298E+002 -0.68794888E-001  0.16376003E+000
