# vtk DataFile Version 2.0
BldPointCP.BldC
ASCII
 
DATASET POLYDATA
POINTS 9 double
  0.89999647E+001 -0.73629040E+001  0.10622753E+003
  0.21599964E+002 -0.18260308E+002  0.94443065E+002
  0.31775209E+002 -0.27001842E+002  0.82368682E+002
  0.38583166E+002 -0.32778828E+002  0.70123848E+002
  0.40687379E+002 -0.34485262E+002  0.58070998E+002
  0.38489008E+002 -0.32547713E+002  0.46046886E+002
  0.31664655E+002 -0.26781299E+002  0.33770225E+002
  0.21472621E+002 -0.18193908E+002  0.21585672E+002
  0.87404470E+001 -0.74143321E+001  0.98431929E+001
  
POINT_DATA 9
SCALARS Gamma_LL double
LOOKUP_TABLE default
  0.62699896E+002
  0.11167302E+003
  0.88862113E+002
  0.97879493E+002
  0.10616282E+003
  0.10793698E+003
  0.10265607E+003
  0.11620776E+003
  0.33801354E+002
VECTORS Vind_CP double
 -0.17204986E+000 -0.28519178E+000 -0.46440574E+000
 -0.22573758E+000  0.17239484E+000 -0.35446875E+000
 -0.35833548E+000  0.29580684E+000 -0.28904721E+000
 -0.70946820E+000  0.54256995E+000 -0.23694802E+000
 -0.96316801E+000  0.66662948E+000  0.25126400E-001
 -0.81111015E+000  0.61915068E+000  0.32167057E+000
 -0.47015637E+000  0.37983550E+000  0.39747879E+000
 -0.33851803E+000  0.24512619E+000  0.39618952E+000
 -0.11228896E+000 -0.30516419E-001  0.66728123E-001
VECTORS Vtot_CP double
  0.95133612E+000 -0.16806074E+002  0.58854521E+000
 -0.18195433E+002 -0.38531412E+002  0.11766405E+001
 -0.34342120E+002 -0.55694154E+002  0.28586857E+000
 -0.44745419E+002 -0.67768149E+002  0.43853064E-001
 -0.47230070E+002 -0.72593744E+002  0.60367304E+000
 -0.43415362E+002 -0.69346088E+002  0.10175277E+001
 -0.32702025E+002 -0.57123934E+002  0.10883796E+001
 -0.16536544E+002 -0.38689541E+002  0.68490211E+000
  0.36204294E+001 -0.15894861E+002  0.51668117E-001
VECTORS Vstr_CP double
  0.16076614E+002  0.16520882E+002 -0.10529510E+001
  0.35169695E+002  0.38703807E+002 -0.15311092E+001
  0.51183785E+002  0.55989961E+002 -0.57491578E+000
  0.61235951E+002  0.68310719E+002 -0.28080108E+000
  0.63466902E+002  0.73260373E+002 -0.57854664E+000
  0.59804252E+002  0.69965239E+002 -0.69585713E+000
  0.49431868E+002  0.57503770E+002 -0.69090079E+000
  0.33398026E+002  0.38934667E+002 -0.28871260E+000
  0.13467282E+002  0.15864345E+002  0.15060006E-001
VECTORS Vwnd_CP double
  0.17200000E+002  0.00000000E+000  0.00000000E+000
  0.17200000E+002  0.00000000E+000  0.00000000E+000
  0.17200000E+002  0.00000000E+000  0.00000000E+000
  0.17200000E+002  0.00000000E+000  0.00000000E+000
  0.17200000E+002  0.00000000E+000  0.00000000E+000
  0.17200000E+002  0.00000000E+000  0.00000000E+000
  0.17200000E+002  0.00000000E+000  0.00000000E+000
  0.17200000E+002  0.00000000E+000  0.00000000E+000
  0.17200000E+002  0.00000000E+000  0.00000000E+000
VECTORS Tangent double
 -0.41489791E+000 -0.90986707E+000 -0.12774525E-002
 -0.64089461E+000 -0.76760035E+000  0.66181401E-002
 -0.65845377E+000 -0.75260707E+000  0.46078524E-002
 -0.65785969E+000 -0.75314019E+000 -0.68726616E-003
 -0.65007506E+000 -0.75986999E+000 -0.87941026E-004
 -0.65173359E+000 -0.75844709E+000  0.11599837E-002
 -0.65220358E+000 -0.75804310E+000  0.10729854E-002
 -0.64686482E+000 -0.76260448E+000  0.55099407E-003
 -0.64634350E+000 -0.76301759E+000 -0.66511047E-002
VECTORS Normal double
  0.48753904E+000 -0.22350200E+000  0.84400980E+000
  0.49107374E+000 -0.40335652E+000  0.77210757E+000
  0.53031203E+000 -0.45960672E+000  0.71241196E+000
  0.68100176E+000 -0.59523679E+000  0.42653227E+000
  0.75980251E+000 -0.65001578E+000 -0.13402903E-001
  0.68244491E+000 -0.58709086E+000 -0.43542309E+000
  0.53698612E+000 -0.46300918E+000 -0.70517261E+000
  0.48739761E+000 -0.41398128E+000 -0.76880626E+000
  0.39483983E+000 -0.32698008E+000 -0.85859510E+000
VECTORS Orth double
  0.76822224E+000 -0.34955509E+000 -0.53632623E+000
  0.59000057E+000 -0.49808958E+000 -0.63545740E+000
  0.53404848E+000 -0.47153394E+000 -0.70174637E+000
  0.32164768E+000 -0.28013036E+000 -0.90447209E+000
 -0.10127301E-001  0.87797107E-002 -0.99991017E+000
 -0.33092639E+000  0.28298823E+000 -0.90022518E+000
 -0.53504803E+000  0.45933992E+000 -0.70903486E+000
 -0.58652320E+000  0.49704517E+000 -0.63948153E+000
 -0.65294838E+000  0.55757348E+000 -0.51261118E+000
