# vtk DataFile Version 2.0

ASCII
 
DATASET POLYDATA
POINTS 100 double
  0.70164293E-001  0.14243562E-001  0.11318156E+003
  0.12745141E+002 -0.16139148E+002  0.10089464E+003
  0.21734377E+002 -0.27573584E+002  0.88715296E+002
  0.29275181E+002 -0.37120287E+002  0.76493749E+002
  0.33010807E+002 -0.41840318E+002  0.64221495E+002
  0.33005431E+002 -0.41821515E+002  0.51967507E+002
  0.29262483E+002 -0.37078514E+002  0.39707925E+002
  0.21728321E+002 -0.27538725E+002  0.27470243E+002
  0.12729018E+002 -0.16135021E+002  0.15260696E+002
  0.18521908E-003  0.49325705E-004  0.30001419E+001
 -0.15933431E+001 -0.41669920E+001  0.11317804E+003
  0.92918936E+001 -0.18885598E+002  0.10090172E+003
  0.19296146E+002 -0.29482933E+002  0.88718947E+002
  0.27341385E+002 -0.38633483E+002  0.76492794E+002
  0.31241167E+002 -0.43239211E+002  0.64221211E+002
  0.31203013E+002 -0.43249666E+002  0.51966780E+002
  0.27217304E+002 -0.38684366E+002  0.39706978E+002
  0.19036373E+002 -0.29657280E+002  0.27470838E+002
  0.92009893E+001 -0.18928408E+002  0.15260752E+002
 -0.35330310E+001 -0.27867313E+001  0.29847598E+001
 -0.14969817E+001 -0.41383911E+001  0.11317467E+003
  0.91209917E+001 -0.19049137E+002  0.10089555E+003
  0.18932435E+002 -0.29823822E+002  0.88716366E+002
  0.26810331E+002 -0.39116169E+002  0.76490232E+002
  0.30623664E+002 -0.43788012E+002  0.64219677E+002
  0.30584970E+002 -0.43797349E+002  0.51968601E+002
  0.26684708E+002 -0.39164060E+002  0.39710227E+002
  0.18669144E+002 -0.29992919E+002  0.27474034E+002
  0.90298236E+001 -0.19089942E+002  0.15262759E+002
 -0.34135866E+001 -0.27219890E+001  0.29812649E+001
 -0.14200892E+001 -0.41100018E+001  0.11317379E+003
  0.89376816E+001 -0.19202989E+002  0.10090102E+003
  0.18558001E+002 -0.30146514E+002  0.88711987E+002
  0.26262123E+002 -0.39574597E+002  0.76480829E+002
  0.29994239E+002 -0.44325134E+002  0.64218326E+002
  0.29955770E+002 -0.44340016E+002  0.51969883E+002
  0.26137229E+002 -0.39632427E+002  0.39716266E+002
  0.18291675E+002 -0.30318223E+002  0.27479146E+002
  0.88537962E+001 -0.19245212E+002  0.15262096E+002
 -0.32921063E+001 -0.26566515E+001  0.29824159E+001
 -0.13397349E+001 -0.40794672E+001  0.11317359E+003
  0.87527793E+001 -0.19351881E+002  0.10090388E+003
  0.18179444E+002 -0.30460834E+002  0.88708581E+002
  0.25707755E+002 -0.40022705E+002  0.76473283E+002
  0.29357862E+002 -0.44850587E+002  0.64217330E+002
  0.29319819E+002 -0.44869535E+002  0.51970324E+002
  0.25583651E+002 -0.40088229E+002  0.39720340E+002
  0.17909904E+002 -0.30634295E+002  0.27482087E+002
  0.86750512E+001 -0.19394651E+002  0.15261006E+002
 -0.31686386E+001 -0.25906316E+001  0.29843269E+001
 -0.12555052E+001 -0.40469373E+001  0.11317385E+003
  0.85697817E+001 -0.19493442E+002  0.10091506E+003
  0.17796449E+002 -0.30766480E+002  0.88705940E+002
  0.25147225E+002 -0.40460234E+002  0.76467639E+002
  0.28714334E+002 -0.45363445E+002  0.64216735E+002
  0.28676854E+002 -0.45385110E+002  0.51969913E+002
  0.25023864E+002 -0.40531243E+002  0.39722590E+002
  0.17523626E+002 -0.30940658E+002  0.27483383E+002
  0.84951833E+001 -0.19537176E+002  0.15255651E+002
 -0.30432842E+001 -0.25238149E+001  0.29866538E+001
 -0.11671406E+001 -0.40125562E+001  0.11317429E+003
  0.83868806E+001 -0.19629018E+002  0.10092581E+003
  0.17408574E+002 -0.31063047E+002  0.88703768E+002
  0.24580274E+002 -0.40886421E+002  0.76463625E+002
  0.28061991E+002 -0.45860646E+002  0.64216249E+002
  0.28024984E+002 -0.45883828E+002  0.51969109E+002
  0.24457415E+002 -0.40960772E+002  0.39723505E+002
  0.17132577E+002 -0.31236740E+002  0.27483634E+002
  0.83127112E+001 -0.19673882E+002  0.15251682E+002
 -0.29162961E+001 -0.24562998E+001  0.29891200E+001
 -0.10743511E+001 -0.39764468E+001  0.11317460E+003
  0.82009006E+001 -0.19760515E+002  0.10093553E+003
  0.17015416E+002 -0.31349970E+002  0.88701628E+002
  0.24006667E+002 -0.41300134E+002  0.76460924E+002
  0.27400288E+002 -0.46340492E+002  0.64215611E+002
  0.27363338E+002 -0.46363989E+002  0.51968389E+002
  0.23883783E+002 -0.41375600E+002  0.39723625E+002
  0.16736447E+002 -0.31521896E+002  0.27483502E+002
  0.81280686E+001 -0.19804697E+002  0.15246574E+002
 -0.27880040E+001 -0.23879654E+001  0.29912837E+001
 -0.97706722E+000 -0.39384862E+001  0.11317466E+003
  0.80148293E+001 -0.19885665E+002  0.10094250E+003
  0.16618007E+002 -0.31628488E+002  0.88700493E+002
  0.23427645E+002 -0.41702372E+002  0.76459791E+002
  0.26730620E+002 -0.46804446E+002  0.64215138E+002
  0.26693305E+002 -0.46827370E+002  0.51967890E+002
  0.23303951E+002 -0.41777025E+002  0.39723102E+002
  0.16336128E+002 -0.31797196E+002  0.27482956E+002
  0.79417527E+001 -0.19929214E+002  0.15242462E+002
 -0.26584450E+001 -0.23188743E+001  0.29926420E+001
 -0.87644963E+000 -0.38987787E+001  0.11317471E+003
  0.78281971E+001 -0.20004753E+002  0.10094539E+003
  0.16216360E+002 -0.31898566E+002  0.88698601E+002
  0.22844457E+002 -0.42095024E+002  0.76460246E+002
  0.26055166E+002 -0.47256044E+002  0.64215247E+002
  0.26017434E+002 -0.47278256E+002  0.51967435E+002
  0.22719613E+002 -0.42167840E+002  0.39722040E+002
  0.15931504E+002 -0.32062677E+002  0.27484393E+002
  0.77539509E+001 -0.20047336E+002  0.15241634E+002
 -0.25275387E+001 -0.22491246E+001  0.29932393E+001
  
POLYGONS 81 405
      4      0      1     11     10
      4      1      2     12     11
      4      2      3     13     12
      4      3      4     14     13
      4      4      5     15     14
      4      5      6     16     15
      4      6      7     17     16
      4      7      8     18     17
      4      8      9     19     18
      4     10     11     21     20
      4     11     12     22     21
      4     12     13     23     22
      4     13     14     24     23
      4     14     15     25     24
      4     15     16     26     25
      4     16     17     27     26
      4     17     18     28     27
      4     18     19     29     28
      4     20     21     31     30
      4     21     22     32     31
      4     22     23     33     32
      4     23     24     34     33
      4     24     25     35     34
      4     25     26     36     35
      4     26     27     37     36
      4     27     28     38     37
      4     28     29     39     38
      4     30     31     41     40
      4     31     32     42     41
      4     32     33     43     42
      4     33     34     44     43
      4     34     35     45     44
      4     35     36     46     45
      4     36     37     47     46
      4     37     38     48     47
      4     38     39     49     48
      4     40     41     51     50
      4     41     42     52     51
      4     42     43     53     52
      4     43     44     54     53
      4     44     45     55     54
      4     45     46     56     55
      4     46     47     57     56
      4     47     48     58     57
      4     48     49     59     58
      4     50     51     61     60
      4     51     52     62     61
      4     52     53     63     62
      4     53     54     64     63
      4     54     55     65     64
      4     55     56     66     65
      4     56     57     67     66
      4     57     58     68     67
      4     58     59     69     68
      4     60     61     71     70
      4     61     62     72     71
      4     62     63     73     72
      4     63     64     74     73
      4     64     65     75     74
      4     65     66     76     75
      4     66     67     77     76
      4     67     68     78     77
      4     68     69     79     78
      4     70     71     81     80
      4     71     72     82     81
      4     72     73     83     82
      4     73     74     84     83
      4     74     75     85     84
      4     75     76     86     85
      4     76     77     87     86
      4     77     78     88     87
      4     78     79     89     88
      4     80     81     91     90
      4     81     82     92     91
      4     82     83     93     92
      4     83     84     94     93
      4     84     85     95     94
      4     85     86     96     95
      4     86     87     97     96
      4     87     88     98     97
      4     88     89     99     98
  
CELL_DATA 81
SCALARS Gamma double
LOOKUP_TABLE default
  0.39962493E+002
  0.78966527E+002
  0.56220154E+002
  0.68284727E+002
  0.81646938E+002
  0.77511253E+002
  0.70346889E+002
  0.84502727E+002
  0.23600739E+002
  0.39962493E+002
  0.78966527E+002
  0.56220154E+002
  0.68284727E+002
  0.81646938E+002
  0.77511253E+002
  0.70346889E+002
  0.84502727E+002
  0.23600739E+002
  0.31180205E+002
  0.61861691E+002
  0.43729599E+002
  0.53402917E+002
  0.64079181E+002
  0.60762635E+002
  0.54966018E+002
  0.66251422E+002
  0.18425397E+002
  0.21751674E+002
  0.43748467E+002
  0.31092012E+002
  0.37702419E+002
  0.44954690E+002
  0.42522550E+002
  0.38757463E+002
  0.47116865E+002
  0.12995209E+002
  0.12940546E+002
  0.26383846E+002
  0.18957153E+002
  0.22682258E+002
  0.26751777E+002
  0.25299876E+002
  0.23305827E+002
  0.28582989E+002
  0.78166061E+001
  0.55517334E+001
  0.11524444E+002
  0.84253451E+001
  0.98669053E+001
  0.11443381E+002
  0.10857547E+002
  0.10153410E+002
  0.12534465E+002
  0.33987728E+001
  0.10796506E+001
  0.22864924E+001
  0.17123151E+001
  0.19508177E+001
  0.22107269E+001
  0.21117534E+001
  0.20087758E+001
  0.24850141E+001
  0.67029763E+000
  0.12168383E-001
  0.26361473E-001
  0.20268502E-001
  0.22122473E-001
  0.24323726E-001
  0.23479501E-001
  0.22930704E-001
  0.28397287E-001
  0.76470951E-002
  0.00000000E+000
  0.00000000E+000
  0.00000000E+000
  0.00000000E+000
  0.00000000E+000
  0.00000000E+000
  0.00000000E+000
  0.00000000E+000
  0.00000000E+000
POINT_DATA 100
VECTORS Uconv double
  0.00000000E+000  0.00000000E+000  0.00000000E+000
  0.00000000E+000  0.00000000E+000  0.00000000E+000
  0.00000000E+000  0.00000000E+000  0.00000000E+000
  0.00000000E+000  0.00000000E+000  0.00000000E+000
  0.00000000E+000  0.00000000E+000  0.00000000E+000
  0.00000000E+000  0.00000000E+000  0.00000000E+000
  0.00000000E+000  0.00000000E+000  0.00000000E+000
  0.00000000E+000  0.00000000E+000  0.00000000E+000
  0.00000000E+000  0.00000000E+000  0.00000000E+000
  0.00000000E+000  0.00000000E+000  0.00000000E+000
  0.00000000E+000  0.00000000E+000  0.00000000E+000
  0.00000000E+000  0.00000000E+000  0.00000000E+000
  0.00000000E+000  0.00000000E+000  0.00000000E+000
  0.00000000E+000  0.00000000E+000  0.00000000E+000
  0.00000000E+000  0.00000000E+000  0.00000000E+000
  0.00000000E+000  0.00000000E+000  0.00000000E+000
  0.00000000E+000  0.00000000E+000  0.00000000E+000
  0.00000000E+000  0.00000000E+000  0.00000000E+000
  0.00000000E+000  0.00000000E+000  0.00000000E+000
  0.00000000E+000  0.00000000E+000  0.00000000E+000
  0.17115403E+002 -0.77244677E-001 -0.33681135E+000
  0.17075036E+002  0.75178422E-001 -0.61724372E+000
  0.17043077E+002  0.18685605E+000 -0.25815816E+000
  0.16920254E+002  0.34873537E+000 -0.25614770E+000
  0.16634171E+002  0.68648939E+000 -0.15333898E+000
  0.16597952E+002  0.72966606E+000  0.18209615E+000
  0.16855599E+002  0.42394813E+000  0.32491679E+000
  0.17000923E+002  0.24106936E+000  0.31962708E+000
  0.17124227E+002  0.11128917E+000  0.20070333E+000
  0.16906274E+002  0.65741043E-001 -0.34950400E+000
  0.17113278E+002 -0.76642881E-001 -0.33755065E+000
  0.17086360E+002  0.64042705E-001 -0.52558552E+000
  0.17077983E+002  0.14435280E+000 -0.19753182E+000
  0.16991691E+002  0.25919194E+000 -0.18168261E+000
  0.16779810E+002  0.51339886E+000 -0.10956189E+000
  0.16753901E+002  0.54659936E+000  0.13114903E+000
  0.16943283E+002  0.31848409E+000  0.23415624E+000
  0.17042419E+002  0.19093172E+000  0.24906477E+000
  0.17134933E+002  0.99315139E-001  0.17438049E+000
  0.16910521E+002  0.60479724E-001 -0.33729976E+000
  0.17111050E+002 -0.76039108E-001 -0.33818090E+000
  0.17096424E+002  0.51392761E-001 -0.44567702E+000
  0.17113706E+002  0.99373851E-001 -0.13436282E+000
  0.17071971E+002  0.15535654E+000 -0.97382145E-001
  0.16953061E+002  0.29923669E+000 -0.57188612E-001
  0.16938118E+002  0.32134015E+000  0.71501025E-001
  0.17040225E+002  0.19684709E+000  0.13249510E+000
  0.17085179E+002  0.13777058E+000  0.17282395E+000
  0.17145464E+002  0.87005743E-001  0.14798655E+000
  0.16914833E+002  0.55154103E-001 -0.32479597E+000
  0.17108708E+002 -0.75433890E-001 -0.33868290E+000
  0.17107252E+002  0.40654452E-001 -0.36939528E+000
  0.17149151E+002  0.53091846E-001 -0.70348392E-001
  0.17154061E+002  0.45772837E-001 -0.10153132E-001
  0.17130757E+002  0.71492083E-001 -0.36266826E-002
  0.17126233E+002  0.81977383E-001  0.98535726E-002
  0.17138449E+002  0.68943656E-001  0.27775528E-001
  0.17127077E+002  0.83632576E-001  0.98256898E-001
  0.17156103E+002  0.74797610E-001  0.11886624E+000
  0.16919214E+002  0.49799807E-001 -0.31198050E+000
  0.17106250E+002 -0.74832492E-001 -0.33903537E+000
  0.17117896E+002  0.29776585E-001 -0.29683482E+000
  0.17183230E+002  0.67148957E-002 -0.72068158E-002
  0.17230582E+002 -0.60191869E-001  0.73084714E-001
  0.17289102E+002 -0.14161276E+000  0.45691955E-001
  0.17293129E+002 -0.14157465E+000 -0.46949763E-001
  0.17229212E+002 -0.54379768E-001 -0.71822776E-001
  0.17167089E+002  0.29718163E-001  0.25153243E-001
  0.17166016E+002  0.62486655E-001  0.93936649E-001
  0.16923660E+002  0.44452787E-001 -0.29886805E+000
  0.17103668E+002 -0.74242779E-001 -0.33921393E+000
  0.17128267E+002  0.18512962E-001 -0.22767369E+000
  0.17214932E+002 -0.38589337E-001  0.53427393E-001
  0.17295390E+002 -0.15421302E+000  0.14631209E+000
  0.17410897E+002 -0.31633430E+000  0.86108784E-001
  0.17421092E+002 -0.32494413E+000 -0.94943536E-001
  0.17311364E+002 -0.16009397E+000 -0.16017044E+000
  0.17203992E+002 -0.22583593E-001 -0.44551333E-001
  0.17175494E+002  0.50304998E-001  0.69859467E-001
  0.16928162E+002  0.39163319E-001 -0.28546659E+000
  0.17100021E+002 -0.71194080E-001 -0.34661301E+000
  0.17137851E+002  0.68809814E-002 -0.16375202E+000
  0.17243765E+002 -0.81490322E-001  0.11012515E+000
  0.17345160E+002 -0.23029146E+000  0.20546344E+000
  0.17489600E+002 -0.43908826E+000  0.11507527E+000
  0.17503659E+002 -0.45414135E+000 -0.12821643E+000
  0.17369466E+002 -0.24918597E+000 -0.23242546E+000
  0.17237118E+002 -0.71849785E-001 -0.10924536E+000
  0.17184270E+002  0.38218587E-001  0.46853628E-001
  0.16932733E+002  0.33967951E-001 -0.27176532E+000
  0.17097779E+002 -0.72118794E-001 -0.34513278E+000
  0.17143616E+002 -0.21790639E-001  0.83819136E-001
  0.17149674E+002  0.37678483E-001 -0.75542472E-001
  0.17379198E+002 -0.28577701E+000  0.24882571E+000
  0.17528070E+002 -0.50814708E+000  0.13274807E+000
  0.17544229E+002 -0.52735448E+000 -0.14794820E+000
  0.17409037E+002 -0.31404054E+000 -0.28415947E+000
  0.17139678E+002  0.50940711E-001  0.90491000E-001
  0.17192997E+002  0.25073732E-001  0.34108226E-001
  0.16937364E+002  0.28868320E-001 -0.25777893E+000
