# vtk DataFile Version 2.0
Sgmt
ASCII
 
DATASET POLYDATA
POINTS 180 double
 -0.19984014E-014  0.73955710E-031  0.11318291E+003
 -0.20551200E+002  0.42188475E-014  0.10094036E+003
 -0.35044324E+002  0.73274720E-014  0.88697816E+002
 -0.47183144E+002  0.10325074E-013  0.76455271E+002
 -0.53252554E+002  0.12545520E-013  0.64212725E+002
 -0.53252554E+002  0.13988810E-013  0.51970180E+002
 -0.47183144E+002  0.14765966E-013  0.39727634E+002
 -0.35044324E+002  0.14765966E-013  0.27485089E+002
 -0.20551200E+002  0.14432899E-013  0.15242543E+002
 -0.19591396E-013  0.13544721E-013  0.29999979E+001
 -0.45000000E+001  0.82663659E-015  0.11318291E+003
 -0.20551200E+002  0.44122505E+001  0.10094036E+003
 -0.35044324E+002  0.30968692E+001  0.88697816E+002
 -0.47183144E+002  0.24554692E+001  0.76455271E+002
 -0.53252554E+002  0.22557761E+001  0.64212725E+002
 -0.53252554E+002  0.22996360E+001  0.51970180E+002
 -0.47183144E+002  0.26002918E+001  0.39727634E+002
 -0.35044324E+002  0.34256185E+001  0.27485089E+002
 -0.20551200E+002  0.45000000E+001  0.15242543E+002
 -0.19040305E-013  0.45000000E+001  0.29999979E+001
  0.88817842E-015  0.16653345E-014  0.11318291E+003
  0.10275600E+002  0.17797861E+002  0.10094036E+003
  0.17522162E+002  0.30349275E+002  0.88697816E+002
  0.23591572E+002  0.40861801E+002  0.76455271E+002
  0.26626277E+002  0.46118065E+002  0.64212725E+002
  0.26626277E+002  0.46118065E+002  0.51970180E+002
  0.23591572E+002  0.40861801E+002  0.39727634E+002
  0.17522162E+002  0.30349275E+002  0.27485089E+002
  0.10275600E+002  0.17797861E+002  0.15242543E+002
  0.95479180E-014  0.18207658E-013  0.29999979E+001
  0.22500000E+001 -0.38971143E+001  0.11318291E+003
  0.14096721E+002  0.15591736E+002  0.10094036E+003
  0.20204129E+002  0.28800840E+002  0.88697816E+002
  0.25718071E+002  0.39634067E+002  0.76455271E+002
  0.28579837E+002  0.44990177E+002  0.64212725E+002
  0.28617820E+002  0.44968247E+002  0.51970180E+002
  0.25843491E+002  0.39561656E+002  0.39727634E+002
  0.20488835E+002  0.28636465E+002  0.27485089E+002
  0.14172714E+002  0.15547861E+002  0.15242543E+002
  0.38971143E+001 -0.22500000E+001  0.29999979E+001
  0.99920072E-015 -0.17763568E-014  0.11318291E+003
  0.10275600E+002 -0.17797861E+002  0.10094036E+003
  0.17522162E+002 -0.30349275E+002  0.88697816E+002
  0.23591572E+002 -0.40861801E+002  0.76455271E+002
  0.26626277E+002 -0.46118065E+002  0.64212725E+002
  0.26626277E+002 -0.46118065E+002  0.51970180E+002
  0.23591572E+002 -0.40861801E+002  0.39727634E+002
  0.17522162E+002 -0.30349275E+002  0.27485089E+002
  0.10275600E+002 -0.17797861E+002  0.15242543E+002
  0.97699626E-014 -0.18651747E-013  0.29999979E+001
 -0.22500000E+001 -0.38971143E+001  0.11318291E+003
  0.64544790E+001 -0.20003986E+002  0.10094036E+003
  0.14840195E+002 -0.31897709E+002  0.88697816E+002
  0.21465073E+002 -0.42089536E+002  0.76455271E+002
  0.24672718E+002 -0.47245953E+002  0.64212725E+002
  0.24634734E+002 -0.47267883E+002  0.51970180E+002
  0.21339653E+002 -0.42161947E+002  0.39727634E+002
  0.14555489E+002 -0.32062084E+002  0.27485089E+002
  0.63784857E+001 -0.20047861E+002  0.15242543E+002
 -0.38971143E+001 -0.22500000E+001  0.29999979E+001
 -0.10000000E+000  0.00000000E+000  0.15120120E+002
 -0.24389775E+001  0.00000000E+000  0.15120120E+002
 -0.47779551E+001  0.00000000E+000  0.15120120E+002
 -0.71169326E+001  0.00000000E+000  0.15120120E+002
 -0.94559102E+001  0.00000000E+000  0.15120120E+002
 -0.11794888E+002  0.00000000E+000  0.15120120E+002
 -0.14133865E+002  0.00000000E+000  0.15120120E+002
 -0.16472843E+002  0.00000000E+000  0.15120120E+002
 -0.18811820E+002  0.00000000E+000  0.15120120E+002
 -0.21150798E+002  0.00000000E+000  0.15120120E+002
 -0.10000000E+000  0.45000000E+001  0.15120120E+002
 -0.24389775E+001  0.45000000E+001  0.15120120E+002
 -0.47779551E+001  0.45000000E+001  0.15120120E+002
 -0.71169326E+001  0.45000000E+001  0.15120120E+002
 -0.94559102E+001  0.45000000E+001  0.15120120E+002
 -0.11794888E+002  0.45000000E+001  0.15120120E+002
 -0.14133865E+002  0.45000000E+001  0.15120120E+002
 -0.16472843E+002  0.45000000E+001  0.15120120E+002
 -0.18811820E+002  0.45000000E+001  0.15120120E+002
 -0.21150798E+002  0.45000000E+001  0.15120120E+002
  0.50000001E-001  0.86602539E-001  0.15120120E+002
  0.12194888E+001  0.21122165E+001  0.15120120E+002
  0.23889775E+001  0.41378305E+001  0.15120120E+002
  0.35584663E+001  0.61634445E+001  0.15120120E+002
  0.47279551E+001  0.81890584E+001  0.15120120E+002
  0.58974439E+001  0.10214672E+002  0.15120120E+002
  0.70669326E+001  0.12240286E+002  0.15120120E+002
  0.82364214E+001  0.14265900E+002  0.15120120E+002
  0.94059102E+001  0.16291514E+002  0.15120120E+002
  0.10575399E+002  0.18317128E+002  0.15120120E+002
  0.39471143E+001 -0.21633975E+001  0.15120120E+002
  0.51166031E+001 -0.13778349E+000  0.15120120E+002
  0.62860919E+001  0.18878305E+001  0.15120120E+002
  0.74555806E+001  0.39134445E+001  0.15120120E+002
  0.86250694E+001  0.59390584E+001  0.15120120E+002
  0.97945582E+001  0.79646724E+001  0.15120120E+002
  0.10964047E+002  0.99902864E+001  0.15120120E+002
  0.12133536E+002  0.12015900E+002  0.15120120E+002
  0.13303024E+002  0.14041514E+002  0.15120120E+002
  0.14472513E+002  0.16067128E+002  0.15120120E+002
  0.50000001E-001 -0.86602539E-001  0.15120120E+002
  0.12194888E+001 -0.21122165E+001  0.15120120E+002
  0.23889775E+001 -0.41378305E+001  0.15120120E+002
  0.35584663E+001 -0.61634445E+001  0.15120120E+002
  0.47279551E+001 -0.81890584E+001  0.15120120E+002
  0.58974439E+001 -0.10214672E+002  0.15120120E+002
  0.70669326E+001 -0.12240286E+002  0.15120120E+002
  0.82364214E+001 -0.14265900E+002  0.15120120E+002
  0.94059102E+001 -0.16291514E+002  0.15120120E+002
  0.10575399E+002 -0.18317128E+002  0.15120120E+002
 -0.38471143E+001 -0.23366025E+001  0.15120120E+002
 -0.26776255E+001 -0.43622165E+001  0.15120120E+002
 -0.15081368E+001 -0.63878305E+001  0.15120120E+002
 -0.33864800E+000 -0.84134445E+001  0.15120120E+002
  0.83084077E+000 -0.10439058E+002  0.15120120E+002
  0.20003295E+001 -0.12464672E+002  0.15120120E+002
  0.31698183E+001 -0.14490286E+002  0.15120120E+002
  0.43393071E+001 -0.16515900E+002  0.15120120E+002
  0.55087959E+001 -0.18541514E+002  0.15120120E+002
  0.66782846E+001 -0.20567128E+002  0.15120120E+002
 -0.10000000E+000  0.00000000E+000  0.10106279E+003
 -0.24389775E+001  0.00000000E+000  0.10106279E+003
 -0.47779551E+001  0.00000000E+000  0.10106279E+003
 -0.71169326E+001  0.00000000E+000  0.10106279E+003
 -0.94559102E+001  0.00000000E+000  0.10106279E+003
 -0.11794888E+002  0.00000000E+000  0.10106279E+003
 -0.14133865E+002  0.00000000E+000  0.10106279E+003
 -0.16472843E+002  0.00000000E+000  0.10106279E+003
 -0.18811820E+002  0.00000000E+000  0.10106279E+003
 -0.21150798E+002  0.00000000E+000  0.10106279E+003
 -0.10000000E+000  0.45000000E+001  0.10106279E+003
 -0.24389775E+001  0.45000000E+001  0.10106279E+003
 -0.47779551E+001  0.45000000E+001  0.10106279E+003
 -0.71169326E+001  0.45000000E+001  0.10106279E+003
 -0.94559102E+001  0.45000000E+001  0.10106279E+003
 -0.11794888E+002  0.45000000E+001  0.10106279E+003
 -0.14133865E+002  0.45000000E+001  0.10106279E+003
 -0.16472843E+002  0.45000000E+001  0.10106279E+003
 -0.18811820E+002  0.45000000E+001  0.10106279E+003
 -0.21150798E+002  0.45000000E+001  0.10106279E+003
  0.50000001E-001  0.86602539E-001  0.10106279E+003
  0.12194888E+001  0.21122165E+001  0.10106279E+003
  0.23889775E+001  0.41378305E+001  0.10106279E+003
  0.35584663E+001  0.61634445E+001  0.10106279E+003
  0.47279551E+001  0.81890584E+001  0.10106279E+003
  0.58974439E+001  0.10214672E+002  0.10106279E+003
  0.70669326E+001  0.12240286E+002  0.10106279E+003
  0.82364214E+001  0.14265900E+002  0.10106279E+003
  0.94059102E+001  0.16291514E+002  0.10106279E+003
  0.10575399E+002  0.18317128E+002  0.10106279E+003
  0.39471143E+001 -0.21633975E+001  0.10106279E+003
  0.51166031E+001 -0.13778349E+000  0.10106279E+003
  0.62860919E+001  0.18878305E+001  0.10106279E+003
  0.74555806E+001  0.39134445E+001  0.10106279E+003
  0.86250694E+001  0.59390584E+001  0.10106279E+003
  0.97945582E+001  0.79646724E+001  0.10106279E+003
  0.10964047E+002  0.99902864E+001  0.10106279E+003
  0.12133536E+002  0.12015900E+002  0.10106279E+003
  0.13303024E+002  0.14041514E+002  0.10106279E+003
  0.14472513E+002  0.16067128E+002  0.10106279E+003
  0.50000001E-001 -0.86602539E-001  0.10106279E+003
  0.12194888E+001 -0.21122165E+001  0.10106279E+003
  0.23889775E+001 -0.41378305E+001  0.10106279E+003
  0.35584663E+001 -0.61634445E+001  0.10106279E+003
  0.47279551E+001 -0.81890584E+001  0.10106279E+003
  0.58974439E+001 -0.10214672E+002  0.10106279E+003
  0.70669326E+001 -0.12240286E+002  0.10106279E+003
  0.82364214E+001 -0.14265900E+002  0.10106279E+003
  0.94059102E+001 -0.16291514E+002  0.10106279E+003
  0.10575399E+002 -0.18317128E+002  0.10106279E+003
 -0.38471143E+001 -0.23366025E+001  0.10106279E+003
 -0.26776255E+001 -0.43622165E+001  0.10106279E+003
 -0.15081368E+001 -0.63878305E+001  0.10106279E+003
 -0.33864800E+000 -0.84134445E+001  0.10106279E+003
  0.83084077E+000 -0.10439058E+002  0.10106279E+003
  0.20003295E+001 -0.12464672E+002  0.10106279E+003
  0.31698183E+001 -0.14490286E+002  0.10106279E+003
  0.43393071E+001 -0.16515900E+002  0.10106279E+003
  0.55087959E+001 -0.18541514E+002  0.10106279E+003
  0.66782846E+001 -0.20567128E+002  0.10106279E+003
  
LINES 252 756
      2      0      1
      2      0     10
      2     10     11
      2      1      2
      2      1     11
      2     11     12
      2      2      3
      2      2     12
      2     12     13
      2      3      4
      2      3     13
      2     13     14
      2      4      5
      2      4     14
      2     14     15
      2      5      6
      2      5     15
      2     15     16
      2      6      7
      2      6     16
      2     16     17
      2      7      8
      2      7     17
      2     17     18
      2      8      9
      2      8     18
      2     18     19
      2      9     19
      2     20     21
      2     20     30
      2     30     31
      2     21     22
      2     21     31
      2     31     32
      2     22     23
      2     22     32
      2     32     33
      2     23     24
      2     23     33
      2     33     34
      2     24     25
      2     24     34
      2     34     35
      2     25     26
      2     25     35
      2     35     36
      2     26     27
      2     26     36
      2     36     37
      2     27     28
      2     27     37
      2     37     38
      2     28     29
      2     28     38
      2     38     39
      2     29     39
      2     40     41
      2     40     50
      2     50     51
      2     41     42
      2     41     51
      2     51     52
      2     42     43
      2     42     52
      2     52     53
      2     43     44
      2     43     53
      2     53     54
      2     44     45
      2     44     54
      2     54     55
      2     45     46
      2     45     55
      2     55     56
      2     46     47
      2     46     56
      2     56     57
      2     47     48
      2     47     57
      2     57     58
      2     48     49
      2     48     58
      2     58     59
      2     49     59
      2     60     61
      2     60     70
      2     70     71
      2     61     62
      2     61     71
      2     71     72
      2     62     63
      2     62     72
      2     72     73
      2     63     64
      2     63     73
      2     73     74
      2     64     65
      2     64     74
      2     74     75
      2     65     66
      2     65     75
      2     75     76
      2     66     67
      2     66     76
      2     76     77
      2     67     68
      2     67     77
      2     77     78
      2     68     69
      2     68     78
      2     78     79
      2     69     79
      2     80     81
      2     80     90
      2     90     91
      2     81     82
      2     81     91
      2     91     92
      2     82     83
      2     82     92
      2     92     93
      2     83     84
      2     83     93
      2     93     94
      2     84     85
      2     84     94
      2     94     95
      2     85     86
      2     85     95
      2     95     96
      2     86     87
      2     86     96
      2     96     97
      2     87     88
      2     87     97
      2     97     98
      2     88     89
      2     88     98
      2     98     99
      2     89     99
      2    100    101
      2    100    110
      2    110    111
      2    101    102
      2    101    111
      2    111    112
      2    102    103
      2    102    112
      2    112    113
      2    103    104
      2    103    113
      2    113    114
      2    104    105
      2    104    114
      2    114    115
      2    105    106
      2    105    115
      2    115    116
      2    106    107
      2    106    116
      2    116    117
      2    107    108
      2    107    117
      2    117    118
      2    108    109
      2    108    118
      2    118    119
      2    109    119
      2    120    121
      2    120    130
      2    130    131
      2    121    122
      2    121    131
      2    131    132
      2    122    123
      2    122    132
      2    132    133
      2    123    124
      2    123    133
      2    133    134
      2    124    125
      2    124    134
      2    134    135
      2    125    126
      2    125    135
      2    135    136
      2    126    127
      2    126    136
      2    136    137
      2    127    128
      2    127    137
      2    137    138
      2    128    129
      2    128    138
      2    138    139
      2    129    139
      2    140    141
      2    140    150
      2    150    151
      2    141    142
      2    141    151
      2    151    152
      2    142    143
      2    142    152
      2    152    153
      2    143    144
      2    143    153
      2    153    154
      2    144    145
      2    144    154
      2    154    155
      2    145    146
      2    145    155
      2    155    156
      2    146    147
      2    146    156
      2    156    157
      2    147    148
      2    147    157
      2    157    158
      2    148    149
      2    148    158
      2    158    159
      2    149    159
      2    160    161
      2    160    170
      2    170    171
      2    161    162
      2    161    171
      2    171    172
      2    162    163
      2    162    172
      2    172    173
      2    163    164
      2    163    173
      2    173    174
      2    164    165
      2    164    174
      2    174    175
      2    165    166
      2    165    175
      2    175    176
      2    166    167
      2    166    176
      2    176    177
      2    167    168
      2    167    177
      2    177    178
      2    168    169
      2    168    178
      2    178    179
      2    169    179
  
CELL_DATA 252
SCALARS Gamma double
LOOKUP_TABLE default
  0.00000000E+000
 -0.00000000E+000
 -0.00000000E+000
  0.00000000E+000
 -0.00000000E+000
 -0.00000000E+000
  0.00000000E+000
 -0.00000000E+000
 -0.00000000E+000
  0.00000000E+000
 -0.00000000E+000
 -0.00000000E+000
  0.00000000E+000
 -0.00000000E+000
 -0.00000000E+000
  0.00000000E+000
 -0.00000000E+000
 -0.00000000E+000
  0.00000000E+000
 -0.00000000E+000
 -0.00000000E+000
  0.00000000E+000
 -0.00000000E+000
 -0.00000000E+000
  0.00000000E+000
 -0.00000000E+000
 -0.00000000E+000
  0.00000000E+000
  0.00000000E+000
 -0.00000000E+000
 -0.00000000E+000
  0.00000000E+000
 -0.00000000E+000
 -0.00000000E+000
  0.00000000E+000
 -0.00000000E+000
 -0.00000000E+000
  0.00000000E+000
 -0.00000000E+000
 -0.00000000E+000
  0.00000000E+000
 -0.00000000E+000
 -0.00000000E+000
  0.00000000E+000
 -0.00000000E+000
 -0.00000000E+000
  0.00000000E+000
 -0.00000000E+000
 -0.00000000E+000
  0.00000000E+000
 -0.00000000E+000
 -0.00000000E+000
  0.00000000E+000
 -0.00000000E+000
 -0.00000000E+000
  0.00000000E+000
  0.00000000E+000
 -0.00000000E+000
 -0.00000000E+000
  0.00000000E+000
 -0.00000000E+000
 -0.00000000E+000
  0.00000000E+000
 -0.00000000E+000
 -0.00000000E+000
  0.00000000E+000
 -0.00000000E+000
 -0.00000000E+000
  0.00000000E+000
 -0.00000000E+000
 -0.00000000E+000
  0.00000000E+000
 -0.00000000E+000
 -0.00000000E+000
  0.00000000E+000
 -0.00000000E+000
 -0.00000000E+000
  0.00000000E+000
 -0.00000000E+000
 -0.00000000E+000
  0.00000000E+000
 -0.00000000E+000
 -0.00000000E+000
  0.00000000E+000
  0.00000000E+000
 -0.00000000E+000
 -0.00000000E+000
  0.00000000E+000
 -0.00000000E+000
 -0.00000000E+000
  0.00000000E+000
 -0.00000000E+000
 -0.00000000E+000
  0.00000000E+000
 -0.00000000E+000
 -0.00000000E+000
  0.00000000E+000
 -0.00000000E+000
 -0.00000000E+000
  0.00000000E+000
 -0.00000000E+000
 -0.00000000E+000
  0.00000000E+000
 -0.00000000E+000
 -0.00000000E+000
  0.00000000E+000
 -0.00000000E+000
 -0.00000000E+000
  0.00000000E+000
 -0.00000000E+000
 -0.00000000E+000
  0.00000000E+000
  0.00000000E+000
 -0.00000000E+000
 -0.00000000E+000
  0.00000000E+000
 -0.00000000E+000
 -0.00000000E+000
  0.00000000E+000
 -0.00000000E+000
 -0.00000000E+000
  0.00000000E+000
 -0.00000000E+000
 -0.00000000E+000
  0.00000000E+000
 -0.00000000E+000
 -0.00000000E+000
  0.00000000E+000
 -0.00000000E+000
 -0.00000000E+000
  0.00000000E+000
 -0.00000000E+000
 -0.00000000E+000
  0.00000000E+000
 -0.00000000E+000
 -0.00000000E+000
  0.00000000E+000
 -0.00000000E+000
 -0.00000000E+000
  0.00000000E+000
  0.00000000E+000
 -0.00000000E+000
 -0.00000000E+000
  0.00000000E+000
 -0.00000000E+000
 -0.00000000E+000
  0.00000000E+000
 -0.00000000E+000
 -0.00000000E+000
  0.00000000E+000
 -0.00000000E+000
 -0.00000000E+000
  0.00000000E+000
 -0.00000000E+000
 -0.00000000E+000
  0.00000000E+000
 -0.00000000E+000
 -0.00000000E+000
  0.00000000E+000
 -0.00000000E+000
 -0.00000000E+000
  0.00000000E+000
 -0.00000000E+000
 -0.00000000E+000
  0.00000000E+000
 -0.00000000E+000
 -0.00000000E+000
  0.00000000E+000
  0.00000000E+000
 -0.00000000E+000
 -0.00000000E+000
  0.00000000E+000
 -0.00000000E+000
 -0.00000000E+000
  0.00000000E+000
 -0.00000000E+000
 -0.00000000E+000
  0.00000000E+000
 -0.00000000E+000
 -0.00000000E+000
  0.00000000E+000
 -0.00000000E+000
 -0.00000000E+000
  0.00000000E+000
 -0.00000000E+000
 -0.00000000E+000
  0.00000000E+000
 -0.00000000E+000
 -0.00000000E+000
  0.00000000E+000
 -0.00000000E+000
 -0.00000000E+000
  0.00000000E+000
 -0.00000000E+000
 -0.00000000E+000
  0.00000000E+000
  0.00000000E+000
 -0.00000000E+000
 -0.00000000E+000
  0.00000000E+000
 -0.00000000E+000
 -0.00000000E+000
  0.00000000E+000
 -0.00000000E+000
 -0.00000000E+000
  0.00000000E+000
 -0.00000000E+000
 -0.00000000E+000
  0.00000000E+000
 -0.00000000E+000
 -0.00000000E+000
  0.00000000E+000
 -0.00000000E+000
 -0.00000000E+000
  0.00000000E+000
 -0.00000000E+000
 -0.00000000E+000
  0.00000000E+000
 -0.00000000E+000
 -0.00000000E+000
  0.00000000E+000
 -0.00000000E+000
 -0.00000000E+000
  0.00000000E+000
  0.00000000E+000
 -0.00000000E+000
 -0.00000000E+000
  0.00000000E+000
 -0.00000000E+000
 -0.00000000E+000
  0.00000000E+000
 -0.00000000E+000
 -0.00000000E+000
  0.00000000E+000
 -0.00000000E+000
 -0.00000000E+000
  0.00000000E+000
 -0.00000000E+000
 -0.00000000E+000
  0.00000000E+000
 -0.00000000E+000
 -0.00000000E+000
  0.00000000E+000
 -0.00000000E+000
 -0.00000000E+000
  0.00000000E+000
 -0.00000000E+000
 -0.00000000E+000
  0.00000000E+000
 -0.00000000E+000
 -0.00000000E+000
  0.00000000E+000
SCALARS Epsilon double
LOOKUP_TABLE default
  0.23921366E+002
  0.23921366E+002
  0.23921366E+002
  0.18971836E+002
  0.21446601E+002
  0.18971836E+002
  0.17240385E+002
  0.18106111E+002
  0.17240385E+002
  0.13664467E+002
  0.15452426E+002
  0.13664467E+002
  0.12242545E+002
  0.12953506E+002
  0.12242545E+002
  0.13664467E+002
  0.12953506E+002
  0.13664467E+002
  0.17240385E+002
  0.15452426E+002
  0.17240385E+002
  0.18971836E+002
  0.18106111E+002
  0.18971836E+002
  0.23921366E+002
  0.21446601E+002
  0.23921366E+002
  0.23921366E+002
  0.23921366E+002
  0.23921366E+002
  0.23921366E+002
  0.18971836E+002
  0.21446601E+002
  0.18971836E+002
  0.17240385E+002
  0.18106111E+002
  0.17240385E+002
  0.13664467E+002
  0.15452426E+002
  0.13664467E+002
  0.12242545E+002
  0.12953506E+002
  0.12242545E+002
  0.13664467E+002
  0.12953506E+002
  0.13664467E+002
  0.17240385E+002
  0.15452426E+002
  0.17240385E+002
  0.18971836E+002
  0.18106111E+002
  0.18971836E+002
  0.23921366E+002
  0.21446601E+002
  0.23921366E+002
  0.23921366E+002
  0.23921366E+002
  0.23921366E+002
  0.23921366E+002
  0.18971836E+002
  0.21446601E+002
  0.18971836E+002
  0.17240385E+002
  0.18106111E+002
  0.17240385E+002
  0.13664467E+002
  0.15452426E+002
  0.13664467E+002
  0.12242545E+002
  0.12953506E+002
  0.12242545E+002
  0.13664467E+002
  0.12953506E+002
  0.13664467E+002
  0.17240385E+002
  0.15452426E+002
  0.17240385E+002
  0.18971836E+002
  0.18106111E+002
  0.18971836E+002
  0.23921366E+002
  0.21446601E+002
  0.23921366E+002
  0.23921366E+002
  0.23389775E+001
  0.23389775E+001
  0.23389775E+001
  0.23389775E+001
  0.23389775E+001
  0.23389775E+001
  0.23389775E+001
  0.23389775E+001
  0.23389775E+001
  0.23389775E+001
  0.23389775E+001
  0.23389775E+001
  0.23389775E+001
  0.23389775E+001
  0.23389775E+001
  0.23389775E+001
  0.23389775E+001
  0.23389775E+001
  0.23389775E+001
  0.23389775E+001
  0.23389775E+001
  0.23389775E+001
  0.23389775E+001
  0.23389775E+001
  0.23389775E+001
  0.23389775E+001
  0.23389775E+001
  0.23389775E+001
  0.23389775E+001
  0.23389775E+001
  0.23389775E+001
  0.23389775E+001
  0.23389775E+001
  0.23389775E+001
  0.23389775E+001
  0.23389775E+001
  0.23389775E+001
  0.23389775E+001
  0.23389775E+001
  0.23389775E+001
  0.23389775E+001
  0.23389775E+001
  0.23389775E+001
  0.23389775E+001
  0.23389775E+001
  0.23389775E+001
  0.23389775E+001
  0.23389775E+001
  0.23389775E+001
  0.23389775E+001
  0.23389775E+001
  0.23389775E+001
  0.23389775E+001
  0.23389775E+001
  0.23389775E+001
  0.23389775E+001
  0.23389775E+001
  0.23389775E+001
  0.23389775E+001
  0.23389775E+001
  0.23389775E+001
  0.23389775E+001
  0.23389775E+001
  0.23389775E+001
  0.23389775E+001
  0.23389775E+001
  0.23389775E+001
  0.23389775E+001
  0.23389775E+001
  0.23389775E+001
  0.23389775E+001
  0.23389775E+001
  0.23389775E+001
  0.23389775E+001
  0.23389775E+001
  0.23389775E+001
  0.23389775E+001
  0.23389775E+001
  0.23389775E+001
  0.23389775E+001
  0.23389775E+001
  0.23389775E+001
  0.23389775E+001
  0.23389775E+001
  0.23389775E+001
  0.23389775E+001
  0.23389775E+001
  0.23389775E+001
  0.23389775E+001
  0.23389775E+001
  0.23389775E+001
  0.23389775E+001
  0.23389775E+001
  0.23389775E+001
  0.23389775E+001
  0.23389775E+001
  0.23389775E+001
  0.23389775E+001
  0.23389775E+001
  0.23389775E+001
  0.23389775E+001
  0.23389775E+001
  0.23389775E+001
  0.23389775E+001
  0.23389775E+001
  0.23389775E+001
  0.23389775E+001
  0.23389775E+001
  0.23389775E+001
  0.23389775E+001
  0.23389775E+001
  0.23389775E+001
  0.23389775E+001
  0.23389775E+001
  0.23389775E+001
  0.23389775E+001
  0.23389775E+001
  0.23389775E+001
  0.23389775E+001
  0.23389775E+001
  0.23389775E+001
  0.23389775E+001
  0.23389775E+001
  0.23389775E+001
  0.23389775E+001
  0.23389775E+001
  0.23389775E+001
  0.23389775E+001
  0.23389775E+001
  0.23389775E+001
  0.23389775E+001
  0.23389775E+001
  0.23389775E+001
  0.23389775E+001
  0.23389775E+001
  0.23389775E+001
  0.23389775E+001
  0.23389775E+001
  0.23389775E+001
  0.23389775E+001
  0.23389775E+001
  0.23389775E+001
  0.23389775E+001
  0.23389775E+001
  0.23389775E+001
  0.23389775E+001
  0.23389775E+001
  0.23389775E+001
  0.23389775E+001
  0.23389775E+001
  0.23389775E+001
  0.23389775E+001
  0.23389775E+001
  0.23389775E+001
  0.23389775E+001
  0.23389775E+001
  0.23389775E+001
  0.23389775E+001
  0.23389775E+001
  0.23389775E+001
  0.23389775E+001
  0.23389775E+001
  0.23389775E+001
  0.23389775E+001
  0.23389775E+001
  0.23389775E+001
  0.23389775E+001
  0.23389775E+001
