# vtk DataFile Version 2.0

ASCII
 
DATASET POLYDATA
POINTS 160 double
  0.22141780E+000  0.50720621E-001  0.11318103E+003
  0.14481444E+002 -0.14656620E+002  0.10080509E+003
  0.24656931E+002 -0.25136199E+002  0.88708394E+002
  0.33217845E+002 -0.33858241E+002  0.76547625E+002
  0.37377093E+002 -0.38053782E+002  0.64222379E+002
  0.37354072E+002 -0.37959505E+002  0.51956292E+002
  0.33164596E+002 -0.33688992E+002  0.39670120E+002
  0.24619694E+002 -0.25037261E+002  0.27436426E+002
  0.14403292E+002 -0.14659484E+002  0.15268455E+002
  0.17493235E-003  0.44503414E-004  0.30001853E+001
 -0.97217147E+000 -0.42880587E+001  0.11316262E+003
  0.11374455E+002 -0.17789389E+002  0.10082339E+003
  0.22428995E+002 -0.27287171E+002  0.88723204E+002
  0.31442633E+002 -0.35554693E+002  0.76545956E+002
  0.35764973E+002 -0.39631625E+002  0.64220163E+002
  0.35715947E+002 -0.39573467E+002  0.51957156E+002
  0.31298122E+002 -0.35499460E+002  0.39670298E+002
  0.22168941E+002 -0.27430725E+002  0.27438674E+002
  0.11202893E+002 -0.17822939E+002  0.15268622E+002
 -0.32124810E+001 -0.31507106E+001  0.29603831E+001
 -0.87680857E+000 -0.42723980E+001  0.11316088E+003
  0.11221555E+002 -0.17990254E+002  0.10080714E+003
  0.22100250E+002 -0.27680956E+002  0.88714796E+002
  0.30961065E+002 -0.36106373E+002  0.76538878E+002
  0.35203478E+002 -0.40254764E+002  0.64216720E+002
  0.35154018E+002 -0.40194414E+002  0.51961720E+002
  0.30815200E+002 -0.36046363E+002  0.39679565E+002
  0.21836397E+002 -0.27818390E+002  0.27448792E+002
  0.11049333E+002 -0.18019425E+002  0.15270862E+002
 -0.31004959E+001 -0.30914221E+001  0.29514824E+001
 -0.81225410E+000 -0.42581923E+001  0.11316117E+003
  0.11044734E+002 -0.18183921E+002  0.10079386E+003
  0.21751652E+002 -0.28056451E+002  0.88709739E+002
  0.30452407E+002 -0.36628195E+002  0.76524383E+002
  0.34621540E+002 -0.40859323E+002  0.64214274E+002
  0.34574272E+002 -0.40812649E+002  0.51968648E+002
  0.30310163E+002 -0.36587790E+002  0.39694755E+002
  0.21489301E+002 -0.28198623E+002  0.27463318E+002
  0.10890566E+002 -0.18210838E+002  0.15271676E+002
 -0.29876284E+001 -0.30308637E+001  0.29467170E+001
 -0.74634434E+000 -0.42412053E+001  0.11316292E+003
  0.10866570E+002 -0.18369992E+002  0.10079083E+003
  0.21398880E+002 -0.28423332E+002  0.88704967E+002
  0.29936756E+002 -0.37139059E+002  0.76510169E+002
  0.34030374E+002 -0.41451840E+002  0.64211622E+002
  0.33984538E+002 -0.41417957E+002  0.51974817E+002
  0.29797124E+002 -0.37117409E+002  0.39708563E+002
  0.21137019E+002 -0.28570262E+002  0.27475840E+002
  0.10728698E+002 -0.18396459E+002  0.15274797E+002
 -0.28733456E+001 -0.29700093E+001  0.29382131E+001
 -0.67893362E+000 -0.42211904E+001  0.11316580E+003
  0.10688388E+002 -0.18550172E+002  0.10079491E+003
  0.21042234E+002 -0.28781869E+002  0.88701030E+002
  0.29414937E+002 -0.37639887E+002  0.76497109E+002
  0.33431715E+002 -0.42033974E+002  0.64209293E+002
  0.33386780E+002 -0.42011793E+002  0.51979735E+002
  0.29277283E+002 -0.37635936E+002  0.39720127E+002
  0.20779960E+002 -0.28933454E+002  0.27485984E+002
  0.10563065E+002 -0.18576956E+002  0.15279895E+002
 -0.27583050E+001 -0.29076503E+001  0.29291955E+001
 -0.60936937E+000 -0.41994239E+001  0.11316739E+003
  0.10505303E+002 -0.18720162E+002  0.10081898E+003
  0.20681943E+002 -0.29132307E+002  0.88698127E+002
  0.28887807E+002 -0.38131669E+002  0.76486110E+002
  0.32827976E+002 -0.42608187E+002  0.64207868E+002
  0.32783699E+002 -0.42596469E+002  0.51982823E+002
  0.28751886E+002 -0.38144180E+002  0.39728572E+002
  0.20418522E+002 -0.29288381E+002  0.27493391E+002
  0.10395418E+002 -0.18751118E+002  0.15281074E+002
 -0.26418790E+001 -0.28448379E+001  0.29237043E+001
 -0.53738883E+000 -0.41757943E+001  0.11316742E+003
  0.10324982E+002 -0.18890831E+002  0.10081120E+003
  0.20318172E+002 -0.29474866E+002  0.88696655E+002
  0.28355997E+002 -0.38615197E+002  0.76477906E+002
  0.32220195E+002 -0.43175503E+002  0.64207837E+002
  0.32176702E+002 -0.43173054E+002  0.51983604E+002
  0.28221974E+002 -0.38642814E+002  0.39733209E+002
  0.20053049E+002 -0.29635187E+002  0.27497698E+002
  0.10225968E+002 -0.18919003E+002  0.15281910E+002
 -0.25239345E+001 -0.27811081E+001  0.29190003E+001
 -0.46312639E+000 -0.41514027E+001  0.11316231E+003
  0.10141333E+002 -0.19051857E+002  0.10082832E+003
  0.19950866E+002 -0.29809571E+002  0.88696681E+002
  0.27819665E+002 -0.39090704E+002  0.76472758E+002
  0.31609360E+002 -0.43736843E+002  0.64209309E+002
  0.31566940E+002 -0.43742346E+002  0.51982000E+002
  0.27687782E+002 -0.39131812E+002  0.39733936E+002
  0.19683637E+002 -0.29973758E+002  0.27498823E+002
  0.10053052E+002 -0.19081585E+002  0.15280678E+002
 -0.24040114E+001 -0.27169842E+001  0.29193698E+001
 -0.38654654E+000 -0.41222974E+001  0.11316235E+003
  0.99612488E+001 -0.19203667E+002  0.10085756E+003
  0.19579776E+002 -0.30136259E+002  0.88698034E+002
  0.27278599E+002 -0.39557950E+002  0.76470683E+002
  0.30994759E+002 -0.44291163E+002  0.64212253E+002
  0.30953756E+002 -0.44303314E+002  0.51978158E+002
  0.27149169E+002 -0.39610654E+002  0.39731018E+002
  0.19310138E+002 -0.30303723E+002  0.27497289E+002
  0.98777889E+001 -0.19238509E+002  0.15276735E+002
 -0.22821809E+001 -0.26520424E+001  0.29205056E+001
 -0.30621200E+000 -0.40920549E+001  0.11315992E+003
  0.97768703E+001 -0.19353985E+002  0.10087162E+003
  0.19204539E+002 -0.30454676E+002  0.88700420E+002
  0.26731497E+002 -0.40015302E+002  0.76470607E+002
  0.30373748E+002 -0.44835045E+002  0.64215713E+002
  0.30334347E+002 -0.44852420E+002  0.51973312E+002
  0.26604556E+002 -0.40077430E+002  0.39725946E+002
  0.18930083E+002 -0.30622182E+002  0.27497509E+002
  0.97002401E+001 -0.19389109E+002  0.15273613E+002
 -0.21578375E+001 -0.25874104E+001  0.29223031E+001
 -0.22204489E+000 -0.40596133E+001  0.11315822E+003
  0.95974914E+001 -0.19496506E+002  0.10089422E+003
  0.18822689E+002 -0.30762223E+002  0.88699746E+002
  0.26177813E+002 -0.40461842E+002  0.76472185E+002
  0.29744414E+002 -0.45365623E+002  0.64219303E+002
  0.29706600E+002 -0.45386801E+002  0.51967943E+002
  0.26053162E+002 -0.40531131E+002  0.39719395E+002
  0.18545643E+002 -0.30931135E+002  0.27495722E+002
  0.95219801E+001 -0.19532931E+002  0.15262543E+002
 -0.20319343E+001 -0.25213725E+001  0.29245814E+001
 -0.13446311E+000 -0.40234015E+001  0.11315805E+003
  0.94138286E+001 -0.19635554E+002  0.10092460E+003
  0.18433966E+002 -0.31058489E+002  0.88695703E+002
  0.25616793E+002 -0.40896188E+002  0.76474664E+002
  0.29101525E+002 -0.45875788E+002  0.64222431E+002
  0.29064870E+002 -0.45899336E+002  0.51962931E+002
  0.25493938E+002 -0.40970333E+002  0.39712487E+002
  0.18154270E+002 -0.31227401E+002  0.27496792E+002
  0.93405956E+001 -0.19671261E+002  0.15254612E+002
 -0.19046566E+001 -0.24543441E+001  0.29322806E+001
 -0.42111715E-001 -0.39862778E+001  0.11315987E+003
  0.92293786E+001 -0.19768485E+002  0.10096547E+003
  0.18041958E+002 -0.31347327E+002  0.88695303E+002
  0.25047867E+002 -0.41316740E+002  0.76477290E+002
  0.28446360E+002 -0.46365539E+002  0.64224505E+002
  0.28410255E+002 -0.46390070E+002  0.51958998E+002
  0.24926013E+002 -0.41393332E+002  0.39705934E+002
  0.17759835E+002 -0.31515066E+002  0.27493898E+002
  0.91568424E+001 -0.19803605E+002  0.15244933E+002
 -0.17761139E+001 -0.23864110E+001  0.29402567E+001
  0.55039225E-001 -0.39481771E+001  0.11316098E+003
  0.90382220E+001 -0.19886172E+002  0.10096039E+003
  0.17644007E+002 -0.31625669E+002  0.88692950E+002
  0.24472212E+002 -0.41724269E+002  0.76480407E+002
  0.27780324E+002 -0.46835869E+002  0.64225790E+002
  0.27744222E+002 -0.46860396E+002  0.51956356E+002
  0.24350243E+002 -0.41801080E+002  0.39700372E+002
  0.17361141E+002 -0.31792828E+002  0.27490524E+002
  0.89695163E+001 -0.19927160E+002  0.15240180E+002
 -0.16462922E+001 -0.23175303E+001  0.29423743E+001
  0.15546719E+000 -0.39082635E+001  0.11316210E+003
  0.88487368E+001 -0.20001397E+002  0.10096648E+003
  0.17244944E+002 -0.31899432E+002  0.88695968E+002
  0.23891131E+002 -0.42120582E+002  0.76483687E+002
  0.27108037E+002 -0.47292941E+002  0.64226971E+002
  0.27071761E+002 -0.47317167E+002  0.51954702E+002
  0.23768469E+002 -0.42196350E+002  0.39695782E+002
  0.16959415E+002 -0.32062461E+002  0.27486370E+002
  0.87758390E+001 -0.20038842E+002  0.15247027E+002
 -0.15152195E+001 -0.22477813E+001  0.29439231E+001
  
POLYGONS 135 675
      4      0      1     11     10
      4      1      2     12     11
      4      2      3     13     12
      4      3      4     14     13
      4      4      5     15     14
      4      5      6     16     15
      4      6      7     17     16
      4      7      8     18     17
      4      8      9     19     18
      4     10     11     21     20
      4     11     12     22     21
      4     12     13     23     22
      4     13     14     24     23
      4     14     15     25     24
      4     15     16     26     25
      4     16     17     27     26
      4     17     18     28     27
      4     18     19     29     28
      4     20     21     31     30
      4     21     22     32     31
      4     22     23     33     32
      4     23     24     34     33
      4     24     25     35     34
      4     25     26     36     35
      4     26     27     37     36
      4     27     28     38     37
      4     28     29     39     38
      4     30     31     41     40
      4     31     32     42     41
      4     32     33     43     42
      4     33     34     44     43
      4     34     35     45     44
      4     35     36     46     45
      4     36     37     47     46
      4     37     38     48     47
      4     38     39     49     48
      4     40     41     51     50
      4     41     42     52     51
      4     42     43     53     52
      4     43     44     54     53
      4     44     45     55     54
      4     45     46     56     55
      4     46     47     57     56
      4     47     48     58     57
      4     48     49     59     58
      4     50     51     61     60
      4     51     52     62     61
      4     52     53     63     62
      4     53     54     64     63
      4     54     55     65     64
      4     55     56     66     65
      4     56     57     67     66
      4     57     58     68     67
      4     58     59     69     68
      4     60     61     71     70
      4     61     62     72     71
      4     62     63     73     72
      4     63     64     74     73
      4     64     65     75     74
      4     65     66     76     75
      4     66     67     77     76
      4     67     68     78     77
      4     68     69     79     78
      4     70     71     81     80
      4     71     72     82     81
      4     72     73     83     82
      4     73     74     84     83
      4     74     75     85     84
      4     75     76     86     85
      4     76     77     87     86
      4     77     78     88     87
      4     78     79     89     88
      4     80     81     91     90
      4     81     82     92     91
      4     82     83     93     92
      4     83     84     94     93
      4     84     85     95     94
      4     85     86     96     95
      4     86     87     97     96
      4     87     88     98     97
      4     88     89     99     98
      4     90     91    101    100
      4     91     92    102    101
      4     92     93    103    102
      4     93     94    104    103
      4     94     95    105    104
      4     95     96    106    105
      4     96     97    107    106
      4     97     98    108    107
      4     98     99    109    108
      4    100    101    111    110
      4    101    102    112    111
      4    102    103    113    112
      4    103    104    114    113
      4    104    105    115    114
      4    105    106    116    115
      4    106    107    117    116
      4    107    108    118    117
      4    108    109    119    118
      4    110    111    121    120
      4    111    112    122    121
      4    112    113    123    122
      4    113    114    124    123
      4    114    115    125    124
      4    115    116    126    125
      4    116    117    127    126
      4    117    118    128    127
      4    118    119    129    128
      4    120    121    131    130
      4    121    122    132    131
      4    122    123    133    132
      4    123    124    134    133
      4    124    125    135    134
      4    125    126    136    135
      4    126    127    137    136
      4    127    128    138    137
      4    128    129    139    138
      4    130    131    141    140
      4    131    132    142    141
      4    132    133    143    142
      4    133    134    144    143
      4    134    135    145    144
      4    135    136    146    145
      4    136    137    147    146
      4    137    138    148    147
      4    138    139    149    148
      4    140    141    151    150
      4    141    142    152    151
      4    142    143    153    152
      4    143    144    154    153
      4    144    145    155    154
      4    145    146    156    155
      4    146    147    157    156
      4    147    148    158    157
      4    148    149    159    158
  
CELL_DATA 135
SCALARS Gamma double
LOOKUP_TABLE default
  0.55765008E+002
  0.10299465E+003
  0.76268008E+002
  0.88950619E+002
  0.10289328E+003
  0.10215362E+003
  0.93347772E+002
  0.10773487E+003
  0.31243287E+002
  0.55765008E+002
  0.10299465E+003
  0.76268008E+002
  0.88950619E+002
  0.10289328E+003
  0.10215362E+003
  0.93347772E+002
  0.10773487E+003
  0.31243287E+002
  0.54575238E+002
  0.10136402E+003
  0.74760834E+002
  0.87522418E+002
  0.10176708E+003
  0.10100265E+003
  0.91829215E+002
  0.10604890E+003
  0.30616215E+002
  0.53124638E+002
  0.99545566E+002
  0.72503410E+002
  0.85940782E+002
  0.10101857E+003
  0.99434899E+002
  0.89869162E+002
  0.10439297E+003
  0.30010144E+002
  0.51647466E+002
  0.97738212E+002
  0.70404471E+002
  0.84394105E+002
  0.10013231E+003
  0.97654972E+002
  0.87943123E+002
  0.10280359E+003
  0.29406983E+002
  0.50133611E+002
  0.95802285E+002
  0.68396894E+002
  0.82775051E+002
  0.98966935E+002
  0.95623256E+002
  0.85937736E+002
  0.10113575E+003
  0.28760945E+002
  0.47126770E+002
  0.91081558E+002
  0.64599049E+002
  0.78726788E+002
  0.94621029E+002
  0.90646486E+002
  0.81452395E+002
  0.96570826E+002
  0.27272932E+002
  0.40307935E+002
  0.78883779E+002
  0.55757413E+002
  0.68182051E+002
  0.82010533E+002
  0.78109832E+002
  0.70331007E+002
  0.84043411E+002
  0.23558086E+002
  0.31180205E+002
  0.61861691E+002
  0.43729599E+002
  0.53402917E+002
  0.64079181E+002
  0.60762635E+002
  0.54966018E+002
  0.66251422E+002
  0.18425397E+002
  0.21751674E+002
  0.43748467E+002
  0.31092012E+002
  0.37702419E+002
  0.44954690E+002
  0.42522550E+002
  0.38757463E+002
  0.47116865E+002
  0.12995209E+002
  0.12940546E+002
  0.26383846E+002
  0.18957153E+002
  0.22682258E+002
  0.26751777E+002
  0.25299876E+002
  0.23305827E+002
  0.28582989E+002
  0.78166061E+001
  0.55517334E+001
  0.11524444E+002
  0.84253451E+001
  0.98669053E+001
  0.11443381E+002
  0.10857547E+002
  0.10153410E+002
  0.12534465E+002
  0.33987728E+001
  0.10796506E+001
  0.22864924E+001
  0.17123151E+001
  0.19508177E+001
  0.22107269E+001
  0.21117534E+001
  0.20087758E+001
  0.24850141E+001
  0.67029763E+000
  0.12168383E-001
  0.26361473E-001
  0.20268502E-001
  0.22122473E-001
  0.24323726E-001
  0.23479501E-001
  0.22930704E-001
  0.28397287E-001
  0.76470951E-002
  0.00000000E+000
  0.00000000E+000
  0.00000000E+000
  0.00000000E+000
  0.00000000E+000
  0.00000000E+000
  0.00000000E+000
  0.00000000E+000
  0.00000000E+000
POINT_DATA 160
VECTORS Uconv double
  0.00000000E+000  0.00000000E+000  0.00000000E+000
  0.00000000E+000  0.00000000E+000  0.00000000E+000
  0.00000000E+000  0.00000000E+000  0.00000000E+000
  0.00000000E+000  0.00000000E+000  0.00000000E+000
  0.00000000E+000  0.00000000E+000  0.00000000E+000
  0.00000000E+000  0.00000000E+000  0.00000000E+000
  0.00000000E+000  0.00000000E+000  0.00000000E+000
  0.00000000E+000  0.00000000E+000  0.00000000E+000
  0.00000000E+000  0.00000000E+000  0.00000000E+000
  0.00000000E+000  0.00000000E+000  0.00000000E+000
  0.00000000E+000  0.00000000E+000  0.00000000E+000
  0.00000000E+000  0.00000000E+000  0.00000000E+000
  0.00000000E+000  0.00000000E+000  0.00000000E+000
  0.00000000E+000  0.00000000E+000  0.00000000E+000
  0.00000000E+000  0.00000000E+000  0.00000000E+000
  0.00000000E+000  0.00000000E+000  0.00000000E+000
  0.00000000E+000  0.00000000E+000  0.00000000E+000
  0.00000000E+000  0.00000000E+000  0.00000000E+000
  0.00000000E+000  0.00000000E+000  0.00000000E+000
  0.00000000E+000  0.00000000E+000  0.00000000E+000
  0.17243679E+002 -0.25444894E+000 -0.17398926E+000
  0.16934667E+002  0.11128712E+000 -0.16242794E+001
  0.16635726E+002  0.57527733E+000 -0.84085533E+000
  0.16390059E+002  0.88578839E+000 -0.70785154E+000
  0.15810558E+002  0.14585860E+001 -0.34432032E+000
  0.15661757E+002  0.15905392E+001  0.45641939E+000
  0.16152943E+002  0.11044727E+001  0.92672486E+000
  0.16510207E+002  0.71654237E+000  0.10117818E+001
  0.16926309E+002  0.23955941E+000  0.22394249E+000
  0.16821095E+002  0.91801678E-001 -0.89008182E+000
  0.17244998E+002 -0.26039620E+000 -0.17486349E+000
  0.16952347E+002  0.74366965E-001 -0.15266823E+001
  0.16671998E+002  0.54065615E+000 -0.78418260E+000
  0.16398321E+002  0.87832978E+000 -0.69169727E+000
  0.15755773E+002  0.15212903E+001 -0.35338198E+000
  0.15599551E+002  0.16628232E+001  0.46823287E+000
  0.16159064E+002  0.11029075E+001  0.91199189E+000
  0.16550891E+002  0.67806893E+000  0.95034023E+000
  0.16932607E+002  0.23692610E+000  0.36960462E+000
  0.16809368E+002  0.11829344E+000 -0.88484065E+000
  0.17246587E+002 -0.26597647E+000 -0.17686726E+000
  0.16911542E+002  0.91196463E-001 -0.14833606E+001
  0.16714932E+002  0.49744985E+000 -0.71593636E+000
  0.16428948E+002  0.84488638E+000 -0.65422808E+000
  0.15747328E+002  0.15348008E+001 -0.34654634E+000
  0.15588159E+002  0.16822887E+001  0.46314570E+000
  0.16193492E+002  0.10699087E+001  0.87062476E+000
  0.16601329E+002  0.62749561E+000  0.86707427E+000
  0.16950229E+002  0.22019906E+000  0.42921526E+000
  0.16815907E+002  0.11309500E+000 -0.87698612E+000
  0.17240162E+002 -0.25069124E+000 -0.19775768E+000
  0.16913495E+002  0.64916456E-001 -0.14205745E+001
  0.16763921E+002  0.44615748E+000 -0.63699737E+000
  0.16484034E+002  0.78229962E+000 -0.59364053E+000
  0.15797479E+002  0.14838745E+001 -0.32381284E+000
  0.15641253E+002  0.16320060E+001  0.43860076E+000
  0.16259324E+002  0.10010735E+001  0.79994689E+000
  0.16657694E+002  0.56900818E+000  0.77853148E+000
  0.16966778E+002  0.20134781E+000  0.43345832E+000
  0.16822726E+002  0.10801583E+000 -0.86869996E+000
  0.17225210E+002 -0.20663158E+000 -0.62888606E-001
  0.16922060E+002  0.34354848E-001 -0.13915192E+001
  0.16818022E+002  0.38761253E+000 -0.54873545E+000
  0.16563801E+002  0.68972215E+000 -0.50990945E+000
  0.15914948E+002  0.13578503E+001 -0.28395909E+000
  0.15768556E+002  0.15000293E+001  0.39273934E+000
  0.16357300E+002  0.89476822E+000  0.69946389E+000
  0.16720419E+002  0.50194061E+000  0.67932190E+000
  0.16981075E+002  0.18764646E+000  0.43085866E+000
  0.16829069E+002  0.10261850E+000 -0.86005065E+000
  0.17223540E+002 -0.20462585E+000 -0.61025644E-001
  0.16923330E+002  0.52541413E-001 -0.10636354E+001
  0.16876061E+002  0.32303383E+000 -0.45298377E+000
  0.16665773E+002  0.56952018E+000 -0.40538771E+000
  0.16099261E+002  0.11555047E+001 -0.22810390E+000
  0.15969862E+002  0.12845793E+001  0.32640314E+000
  0.16485884E+002  0.75345554E+000  0.57406751E+000
  0.16788121E+002  0.42778478E+000  0.57209217E+000
  0.16999709E+002  0.16230260E+000  0.44054080E+000
  0.16835459E+002  0.97165576E-001 -0.85071455E+000
  0.17286144E+002 -0.39283389E+000 -0.45560385E+000
  0.16938121E+002 -0.12786369E-001 -0.99644830E+000
  0.16936567E+002  0.25388511E+000 -0.35172957E+000
  0.16784201E+002  0.42775145E+000 -0.28690936E+000
  0.16338639E+002  0.88866475E+000 -0.16191425E+000
  0.16232539E+002  0.99787250E+000  0.24428756E+000
  0.16635955E+002  0.58336693E+000  0.42586382E+000
  0.16859993E+002  0.34722931E+000  0.44838376E+000
  0.17006471E+002  0.14506588E+000  0.38125780E+000
  0.16850823E+002  0.73517957E-001 -0.83435267E+000
  0.17264606E+002 -0.33208945E+000 -0.36387971E+000
  0.16929510E+002 -0.44519070E-001 -0.96913279E+000
  0.16997879E+002  0.18178028E+000 -0.24783760E+000
  0.16911258E+002  0.27289162E+000 -0.15863388E+000
  0.16610252E+002  0.58030961E+000 -0.88376716E-001
  0.16530305E+002  0.66587610E+000  0.15208349E+000
  0.16798546E+002  0.39496921E+000  0.26535779E+000
  0.16932533E+002  0.26366163E+000  0.32873592E+000
  0.17029399E+002  0.99638489E-001  0.19004744E+000
  0.16856698E+002  0.66400492E-001 -0.82617155E+000
  0.17254037E+002 -0.30955243E+000 -0.29023823E+000
  0.16924844E+002 -0.13005014E+000 -0.79317129E+000
  0.17058263E+002  0.10844122E+000 -0.14370436E+000
  0.17036994E+002  0.11528895E+000 -0.30205655E-001
  0.16884411E+002  0.25959081E+000 -0.13190729E-001
  0.16833823E+002  0.31637533E+000  0.58332772E-001
  0.16960998E+002  0.20045866E+000  0.10291921E+000
  0.16781864E+002  0.41655369E+000  0.60719022E+000
  0.17037300E+002  0.61444074E-001  0.21439873E+000
  0.16888306E+002  0.11094956E-001 -0.82196403E+000
  0.17258175E+002 -0.32853430E+000 -0.42710999E+000
  0.17135833E+002 -0.10194050E+000 -0.53729043E+000
  0.16911754E+002  0.25396495E+000 -0.40288420E+000
  0.17152400E+002 -0.34439531E-001  0.90191790E-001
  0.17132304E+002 -0.42322356E-001  0.51998692E-001
  0.17109641E+002 -0.15114078E-001 -0.28267647E-001
  0.17111535E+002  0.12971606E-001 -0.51064283E-001
  0.16867405E+002  0.31376612E+000  0.45757949E+000
  0.17101873E+002  0.66295909E-001  0.62696633E-001
  0.16886005E+002  0.19291572E-001 -0.80864855E+000
  0.17241589E+002 -0.28346786E+000 -0.35040519E+000
  0.17148350E+002 -0.88069632E-001 -0.29462582E+000
  0.16978436E+002  0.16812543E+000 -0.29800127E+000
  0.17250185E+002 -0.16732031E+000  0.19572842E+000
  0.17330703E+002 -0.30176666E+000  0.10990216E+000
  0.17331735E+002 -0.30274393E+000 -0.10260247E+000
  0.17240471E+002 -0.15611154E+000 -0.18777454E+000
  0.16944152E+002  0.21608101E+000  0.32114060E+000
  0.17131739E+002  0.46259995E-001  0.86323570E-001
  0.16904065E+002 -0.13418262E-001 -0.80046911E+000
  0.17205526E+002 -0.18870194E+000 -0.32608875E+000
  0.17141414E+002 -0.23939603E+000  0.84959577E+000
  0.17039614E+002  0.87911248E-001 -0.19789183E+000
  0.17325968E+002 -0.27723967E+000  0.28186562E+000
  0.17469626E+002 -0.50193333E+000  0.14832471E+000
  0.17489756E+002 -0.52678518E+000 -0.15876280E+000
  0.17342641E+002 -0.29959680E+000 -0.30797294E+000
  0.17014157E+002  0.12535274E+000  0.20442185E+000
  0.17115525E+002  0.33881315E-002 -0.77664329E-001
  0.16901720E+002 -0.82157557E-002 -0.78045865E+000
  0.17204875E+002 -0.18870160E+000 -0.25062665E+000
  0.16932570E+002  0.36683347E-001  0.49861782E+000
  0.17093493E+002  0.13343511E-001 -0.93770805E-001
  0.17380167E+002 -0.36223157E+000  0.35510483E+000
  0.17551694E+002 -0.63520540E+000  0.17285342E+000
  0.17585596E+002 -0.68061144E+000 -0.19671853E+000
  0.17415130E+002 -0.41082095E+000 -0.39649605E+000
  0.17074595E+002  0.43916579E-001  0.96116353E-001
  0.16945666E+002  0.19642329E+000  0.10659175E+000
  0.16898636E+002  0.19575621E-002 -0.75851566E+000
  0.17202457E+002 -0.18578074E+000 -0.20153815E+000
  0.16975040E+002  0.60070087E-001  0.45380476E+000
  0.17140728E+002 -0.52099010E-001 -0.12116871E-002
  0.17413087E+002 -0.42027941E+000  0.39974648E+000
  0.17587709E+002 -0.70702585E+000  0.19072228E+000
  0.17631118E+002 -0.76817158E+000 -0.21964400E+000
  0.17461514E+002 -0.49020586E+000 -0.45671155E+000
  0.17126891E+002 -0.28798376E-001 -0.55179296E-002
  0.16948477E+002  0.19601984E+000  0.71100339E-001
  0.16898163E+002  0.77568793E-002 -0.73434943E+000
