# vtk DataFile Version 2.0

ASCII
 
DATASET POLYDATA
POINTS 20 double
 -0.19984014E-014  0.12325952E-030  0.11318291E+003
 -0.20551200E+002  0.42188475E-014  0.10094036E+003
 -0.35044324E+002  0.68833828E-014  0.88697816E+002
 -0.47183144E+002  0.10325074E-013  0.76455271E+002
 -0.53252554E+002  0.12323476E-013  0.64212725E+002
 -0.53252554E+002  0.13766766E-013  0.51970180E+002
 -0.47183144E+002  0.14765966E-013  0.39727634E+002
 -0.35044324E+002  0.14432899E-013  0.27485089E+002
 -0.20551200E+002  0.14432899E-013  0.15242543E+002
 -0.19591396E-013  0.13544721E-013  0.29999979E+001
 -0.45000000E+001  0.63315911E-015  0.11318291E+003
 -0.20551200E+002  0.44122505E+001  0.10094036E+003
 -0.35044324E+002  0.30968692E+001  0.88697816E+002
 -0.47183144E+002  0.24554692E+001  0.76455271E+002
 -0.53252554E+002  0.22557761E+001  0.64212725E+002
 -0.53252554E+002  0.22996360E+001  0.51970180E+002
 -0.47183144E+002  0.26002918E+001  0.39727634E+002
 -0.35044324E+002  0.34256185E+001  0.27485089E+002
 -0.20551200E+002  0.45000000E+001  0.15242543E+002
 -0.19233783E-013  0.45000000E+001  0.29999979E+001
  
POLYGONS 9 45
      4      0      1     11     10
      4      1      2     12     11
      4      2      3     13     12
      4      3      4     14     13
      4      4      5     15     14
      4      5      6     16     15
      4      6      7     17     16
      4      7      8     18     17
      4      8      9     19     18
  
CELL_DATA 9
SCALARS Gamma double
LOOKUP_TABLE default
  0.00000000E+000
  0.00000000E+000
  0.00000000E+000
  0.00000000E+000
  0.00000000E+000
  0.00000000E+000
  0.00000000E+000
  0.00000000E+000
  0.00000000E+000
POINT_DATA 20
VECTORS Uconv double
  0.00000000E+000  0.00000000E+000  0.00000000E+000
  0.00000000E+000  0.00000000E+000  0.00000000E+000
  0.00000000E+000  0.00000000E+000  0.00000000E+000
  0.00000000E+000  0.00000000E+000  0.00000000E+000
  0.00000000E+000  0.00000000E+000  0.00000000E+000
  0.00000000E+000  0.00000000E+000  0.00000000E+000
  0.00000000E+000  0.00000000E+000  0.00000000E+000
  0.00000000E+000  0.00000000E+000  0.00000000E+000
  0.00000000E+000  0.00000000E+000  0.00000000E+000
  0.00000000E+000  0.00000000E+000  0.00000000E+000
  0.00000000E+000  0.00000000E+000  0.00000000E+000
  0.00000000E+000  0.00000000E+000  0.00000000E+000
  0.00000000E+000  0.00000000E+000  0.00000000E+000
  0.00000000E+000  0.00000000E+000  0.00000000E+000
  0.00000000E+000  0.00000000E+000  0.00000000E+000
  0.00000000E+000  0.00000000E+000  0.00000000E+000
  0.00000000E+000  0.00000000E+000  0.00000000E+000
  0.00000000E+000  0.00000000E+000  0.00000000E+000
  0.00000000E+000  0.00000000E+000  0.00000000E+000
  0.00000000E+000  0.00000000E+000  0.00000000E+000
