# vtk DataFile Version 2.0
BldPointCP.BldB
ASCII
 
DATASET POLYDATA
POINTS 9 double
  0.33848029E+001  0.11016642E+002  0.10628661E+003
  0.80561378E+001  0.27012319E+002  0.94523888E+002
  0.11831617E+002  0.39819033E+002  0.82382478E+002
  0.14371216E+002  0.48383034E+002  0.70115465E+002
  0.15173715E+002  0.51065038E+002  0.58085370E+002
  0.14359281E+002  0.48289477E+002  0.46071039E+002
  0.11816499E+002  0.39721375E+002  0.33790900E+002
  0.80241141E+001  0.26966479E+002  0.21588561E+002
  0.32698752E+001  0.10985561E+002  0.98393194E+001
  
POINT_DATA 9
SCALARS Gamma_LL double
LOOKUP_TABLE default
  0.11276037E+003
  0.50388080E+002
  0.17760991E+002
  0.25946641E+002
  0.48181962E+002
  0.41039930E+002
  0.27958294E+002
  0.40072636E+002
  0.47914078E+002
VECTORS Vind_CP double
  0.22714321E-001 -0.99539105E-001 -0.48468709E+000
 -0.61996869E-001 -0.11678288E+000 -0.17470939E+000
 -0.31618625E-001 -0.72549694E-001 -0.12462801E-001
 -0.65250876E-001 -0.27621134E+000 -0.29594311E-001
 -0.14107562E+000 -0.55880977E+000  0.21002747E-001
 -0.11329366E+000 -0.41778645E+000  0.11748168E+000
 -0.59805268E-001 -0.17254745E+000  0.96136723E-001
 -0.61093833E-001 -0.16659115E+000  0.16122919E+000
 -0.10186894E+000 -0.66582132E-001  0.13113099E+000
VECTORS Vtot_CP double
  0.35091657E+002 -0.63958113E+001  0.27672209E+000
  0.64968780E+002 -0.15503808E+002  0.52710533E+000
  0.88715371E+002 -0.23302452E+002 -0.37967717E+000
  0.10470849E+003 -0.27394019E+002 -0.36354772E+000
  0.10974516E+003 -0.27842295E+002  0.15570035E+000
  0.10446463E+003 -0.26238853E+002  0.54615670E+000
  0.88662445E+002 -0.21991455E+002  0.81272963E+000
  0.65629333E+002 -0.14977316E+002  0.53064135E+000
  0.36885927E+002 -0.59588982E+001  0.11497559E+000
VECTORS Vstr_CP double
 -0.17868943E+002  0.62962722E+001 -0.76140918E+000
 -0.47830777E+002  0.15387025E+002 -0.70181472E+000
 -0.71546989E+002  0.23229902E+002  0.36721437E+000
 -0.87573741E+002  0.27117807E+002  0.33395341E+000
 -0.92686238E+002  0.27283485E+002 -0.13469760E+000
 -0.87377926E+002  0.25821066E+002 -0.42867502E+000
 -0.71522251E+002  0.21818907E+002 -0.71659291E+000
 -0.48490427E+002  0.14810725E+002 -0.36941216E+000
 -0.19787796E+002  0.58923161E+001  0.16155399E-001
VECTORS Vwnd_CP double
  0.17200000E+002  0.00000000E+000  0.00000000E+000
  0.17200000E+002  0.00000000E+000  0.00000000E+000
  0.17200000E+002  0.00000000E+000  0.00000000E+000
  0.17200000E+002  0.00000000E+000  0.00000000E+000
  0.17200000E+002  0.00000000E+000  0.00000000E+000
  0.17200000E+002  0.00000000E+000  0.00000000E+000
  0.17200000E+002  0.00000000E+000  0.00000000E+000
  0.17200000E+002  0.00000000E+000  0.00000000E+000
  0.17200000E+002  0.00000000E+000  0.00000000E+000
VECTORS Tangent double
  0.84583849E+000 -0.53343865E+000  0.67640506E-003
  0.95598462E+000 -0.29341106E+000 -0.18332104E-002
  0.96024270E+000 -0.27916334E+000 -0.13387591E-002
  0.95990971E+000 -0.28030924E+000 -0.28333891E-003
  0.95736630E+000 -0.28887672E+000 -0.78411138E-004
  0.95831575E+000 -0.28571119E+000 -0.20857091E-003
  0.95944864E+000 -0.28188350E+000 -0.96682261E-004
  0.95835368E+000 -0.28558398E+000  0.80497177E-004
  0.95804733E+000 -0.28658573E+000  0.37312966E-002
VECTORS Normal double
  0.28303523E+000  0.44986438E+000  0.84706145E+000
  0.18851806E+000  0.60941324E+000  0.77011457E+000
  0.19819715E+000  0.67834908E+000  0.70750294E+000
  0.25282456E+000  0.86535194E+000  0.43271903E+000
  0.28887238E+000  0.95735334E+000 -0.52272275E-002
  0.25686399E+000  0.86187735E+000 -0.43725088E+000
  0.20011371E+000  0.68136977E+000 -0.70405237E+000
  0.18299018E+000  0.61385620E+000 -0.76791612E+000
  0.14991899E+000  0.48999399E+000 -0.85873755E+000
VECTORS Orth double
  0.45215960E+000  0.71628573E+000 -0.53149454E+000
  0.22484295E+000  0.73656327E+000 -0.63790296E+000
  0.19660074E+000  0.67963987E+000 -0.70670913E+000
  0.12104996E+000  0.41544284E+000 -0.90152879E+000
 -0.15850915E-002 -0.49817207E-002 -0.99998633E+000
 -0.12510723E+000 -0.41897083E+000 -0.89933955E+000
 -0.19852662E+000 -0.67548274E+000 -0.71014805E+000
 -0.21925513E+000 -0.73594997E+000 -0.64055041E+000
 -0.24427362E+000 -0.82327062E+000 -0.51240208E+000
