# vtk DataFile Version 2.0
BldPointCP.BldB
ASCII
 
DATASET POLYDATA
POINTS 9 double
  0.39231530E+001  0.10812201E+002  0.10631006E+003
  0.94831380E+001  0.26515041E+002  0.94544312E+002
  0.13956369E+002  0.39067678E+002  0.82369333E+002
  0.16969745E+002  0.47496696E+002  0.70103626E+002
  0.17927062E+002  0.50170688E+002  0.58088650E+002
  0.16955913E+002  0.47443883E+002  0.46083686E+002
  0.13942263E+002  0.39008723E+002  0.33812419E+002
  0.94663160E+001  0.26484071E+002  0.21599709E+002
  0.38585625E+001  0.10792888E+002  0.98385227E+001
  
POINT_DATA 9
SCALARS Gamma_LL double
LOOKUP_TABLE default
  0.11584946E+003
  0.53889910E+002
  0.22034558E+002
  0.34943631E+002
  0.56351422E+002
  0.48276938E+002
  0.34641044E+002
  0.49032144E+002
  0.56108493E+002
VECTORS Vind_CP double
  0.21934456E-001 -0.86066995E-001 -0.45387831E+000
 -0.52188455E-001 -0.85985117E-001 -0.13997295E+000
 -0.21438947E-001 -0.48540734E-001 -0.18433255E-002
 -0.59427360E-001 -0.23449455E+000 -0.36855813E-001
 -0.13841041E+000 -0.47597752E+000  0.10465062E-001
 -0.96612002E-001 -0.33616664E+000  0.98294465E-001
 -0.47521176E-001 -0.13298007E+000  0.75018649E-001
 -0.60214045E-001 -0.14613419E+000  0.14752308E+000
 -0.83767643E-001 -0.62667632E-001  0.14914768E+000
VECTORS Vtot_CP double
  0.35144005E+002 -0.73736334E+001  0.30254823E+000
  0.64223082E+002 -0.18211881E+002  0.39875089E+000
  0.87186052E+002 -0.27260170E+002 -0.62253001E+000
  0.10285349E+003 -0.31955226E+002 -0.48702838E+000
  0.10796376E+003 -0.32617749E+002  0.13027864E+000
  0.10285415E+003 -0.30921557E+002  0.58529847E+000
  0.87312928E+002 -0.25957984E+002  0.89055791E+000
  0.64728284E+002 -0.17634578E+002  0.51822506E+000
  0.36556804E+002 -0.70137920E+001  0.86972832E-001
VECTORS Vstr_CP double
 -0.17922071E+002  0.72875664E+001 -0.75642654E+000
 -0.47075270E+002  0.18125895E+002 -0.53872384E+000
 -0.70007491E+002  0.27211629E+002  0.62068668E+000
 -0.85712916E+002  0.31720732E+002  0.45017257E+000
 -0.90902166E+002  0.32141771E+002 -0.11981358E+000
 -0.85750757E+002  0.30585390E+002 -0.48700400E+000
 -0.70160449E+002  0.25825004E+002 -0.81553926E+000
 -0.47588498E+002  0.17488444E+002 -0.37070198E+000
 -0.19440572E+002  0.69511243E+001  0.62174849E-001
VECTORS Vwnd_CP double
  0.17200000E+002  0.00000000E+000  0.00000000E+000
  0.17200000E+002  0.00000000E+000  0.00000000E+000
  0.17200000E+002  0.00000000E+000  0.00000000E+000
  0.17200000E+002  0.00000000E+000  0.00000000E+000
  0.17200000E+002  0.00000000E+000  0.00000000E+000
  0.17200000E+002  0.00000000E+000  0.00000000E+000
  0.17200000E+002  0.00000000E+000  0.00000000E+000
  0.17200000E+002  0.00000000E+000  0.00000000E+000
  0.17200000E+002  0.00000000E+000  0.00000000E+000
VECTORS Tangent double
  0.81765936E+000 -0.57570225E+000  0.31499308E-003
  0.93986033E+000 -0.34155796E+000 -0.85191544E-003
  0.94324956E+000 -0.33208459E+000 -0.30581874E-003
  0.94279690E+000 -0.33336767E+000  0.10376813E-003
  0.94078584E+000 -0.33900148E+000 -0.25015287E-004
  0.94160234E+000 -0.33672690E+000 -0.17343834E-003
  0.94249930E+000 -0.33420811E+000 -0.61907211E-004
  0.94149347E+000 -0.33703122E+000  0.86531645E-004
  0.94126582E+000 -0.33765740E+000  0.24758590E-002
VECTORS Normal double
  0.30447398E+000  0.43290305E+000  0.84846364E+000
  0.21919402E+000  0.60123656E+000  0.76841953E+000
  0.23535606E+000  0.66785262E+000  0.70610226E+000
  0.29983770E+000  0.84810680E+000  0.43682057E+000
  0.33899992E+000  0.94078170E+000 -0.29746222E-002
  0.30236797E+000  0.84574959E+000 -0.43963762E+000
  0.23722056E+000  0.66911545E+000 -0.70428043E+000
  0.21636785E+000  0.60422461E+000 -0.76687520E+000
  0.17500486E+000  0.48155292E+000 -0.85876661E+000
VECTORS Orth double
  0.48859878E+000  0.69365833E+000 -0.52925358E+000
  0.26194761E+000  0.72239377E+000 -0.63994585E+000
  0.23428144E+000  0.66610262E+000 -0.70810981E+000
  0.14570986E+000  0.41180197E+000 -0.89954865E+000
 -0.10319353E-002 -0.27900022E-002 -0.99999558E+000
 -0.14818450E+000 -0.41391137E+000 -0.89817522E+000
 -0.23541766E+000 -0.66376913E+000 -0.70992188E+000
 -0.25840860E+000 -0.72202671E+000 -0.64179625E+000
 -0.28877664E+000 -0.80876095E+000 -0.51236099E+000
