# vtk DataFile Version 2.0

ASCII
 
DATASET POLYDATA
POINTS 110 double
  0.90957925E-001  0.18886225E-001  0.11318144E+003
  0.72849848E+001  0.19238263E+002  0.10087416E+003
  0.12413436E+002  0.32868433E+002  0.88721716E+002
  0.16718800E+002  0.44249329E+002  0.76504886E+002
  0.18836483E+002  0.49853602E+002  0.64217374E+002
  0.18827984E+002  0.49826232E+002  0.51961861E+002
  0.16701425E+002  0.44193669E+002  0.39691013E+002
  0.12405906E+002  0.32831281E+002  0.27448297E+002
  0.72661765E+001  0.19224825E+002  0.15260908E+002
  0.18933880E-003  0.51312656E-004  0.30001531E+001
  0.29399867E+001 -0.34643603E+001  0.11318680E+003
  0.11397958E+002  0.17640953E+002  0.10087086E+003
  0.15313160E+002  0.31781144E+002  0.88720699E+002
  0.19020836E+002  0.43394952E+002  0.76505493E+002
  0.20946122E+002  0.49054886E+002  0.64217533E+002
  0.20976302E+002  0.49005835E+002  0.51961590E+002
  0.19136690E+002  0.43282075E+002  0.39690402E+002
  0.15612099E+002  0.31624968E+002  0.27448544E+002
  0.11472519E+002  0.17625862E+002  0.15261342E+002
  0.42094987E+001 -0.15909809E+001  0.30183513E+001
  0.30486783E+001 -0.35159263E+001  0.11318321E+003
  0.11884942E+002  0.17430612E+002  0.10086003E+003
  0.16054179E+002  0.31498342E+002  0.88718443E+002
  0.19969908E+002  0.43042175E+002  0.76503808E+002
  0.21994943E+002  0.48661701E+002  0.64216265E+002
  0.22023963E+002  0.48611329E+002  0.51963356E+002
  0.20083186E+002  0.42925908E+002  0.39693089E+002
  0.16349927E+002  0.31336045E+002  0.27451427E+002
  0.11958927E+002  0.17414144E+002  0.15264651E+002
  0.43509765E+001 -0.16662723E+001  0.30254670E+001
  0.31363255E+001 -0.35683276E+001  0.11317909E+003
  0.12365847E+002  0.17221057E+002  0.10086840E+003
  0.16786042E+002  0.31190073E+002  0.88715500E+002
  0.20906858E+002  0.42652487E+002  0.76493141E+002
  0.23040747E+002  0.48252424E+002  0.64215428E+002
  0.23070935E+002  0.48209614E+002  0.51966132E+002
  0.21022582E+002  0.42549831E+002  0.39701741E+002
  0.17080515E+002  0.31029858E+002  0.27460560E+002
  0.12442566E+002  0.17198657E+002  0.15265371E+002
  0.44914616E+001 -0.17408998E+001  0.30238051E+001
  0.32252791E+001 -0.36192620E+001  0.11317610E+003
  0.12844526E+002  0.17006258E+002  0.10088066E+003
  0.17512682E+002  0.30872636E+002  0.88712875E+002
  0.21837037E+002  0.42252780E+002  0.76484023E+002
  0.24080022E+002  0.47832242E+002  0.64215500E+002
  0.24111601E+002  0.47795518E+002  0.51967862E+002
  0.21955494E+002  0.42161351E+002  0.39708931E+002
  0.17805901E+002  0.30714451E+002  0.27468046E+002
  0.12922889E+002  0.16978587E+002  0.15264318E+002
  0.46308823E+001 -0.18150119E+001  0.30215958E+001
  0.33156803E+001 -0.36687709E+001  0.11317437E+003
  0.13320667E+002  0.16785965E+002  0.10089549E+003
  0.18233907E+002  0.30546489E+002  0.88710558E+002
  0.22759843E+002  0.41842127E+002  0.76476013E+002
  0.25111755E+002  0.47399135E+002  0.64215544E+002
  0.25145520E+002  0.47368665E+002  0.51968497E+002
  0.22881745E+002  0.41760924E+002  0.39714118E+002
  0.18526035E+002  0.30390239E+002  0.27473500E+002
  0.13399743E+002  0.16753798E+002  0.15261486E+002
  0.47692209E+001 -0.18886125E+001  0.30190023E+001
  0.34077229E+001 -0.37168559E+001  0.11317352E+003
  0.13793864E+002  0.16559866E+002  0.10091105E+003
  0.18949475E+002  0.30212056E+002  0.88708470E+002
  0.23675745E+002  0.41421786E+002  0.76469875E+002
  0.26135570E+002  0.46952541E+002  0.64215987E+002
  0.26171639E+002  0.46927332E+002  0.51968139E+002
  0.23800762E+002  0.41348222E+002  0.39717476E+002
  0.19240604E+002  0.30057118E+002  0.27477147E+002
  0.13872909E+002  0.16524046E+002  0.15257091E+002
  0.49064348E+001 -0.19616924E+001  0.30162194E+001
  0.35015428E+001 -0.37634831E+001  0.11317328E+003
  0.14263149E+002  0.16326493E+002  0.10092383E+003
  0.19659119E+002  0.29869790E+002  0.88706416E+002
  0.24584301E+002  0.40990903E+002  0.76465189E+002
  0.27149998E+002  0.46489527E+002  0.64216085E+002
  0.27188057E+002  0.46468214E+002  0.51967624E+002
  0.24711593E+002  0.40922084E+002  0.39719706E+002
  0.19949271E+002  0.29715079E+002  0.27479323E+002
  0.14342042E+002  0.16288924E+002  0.15251779E+002
  0.50424283E+001 -0.20342407E+001  0.30135553E+001
  0.35977219E+001 -0.38079752E+001  0.11317104E+003
  0.14728386E+002  0.16086937E+002  0.10093378E+003
  0.20362109E+002  0.29519128E+002  0.88702594E+002
  0.25485459E+002  0.40549151E+002  0.76461904E+002
  0.28153777E+002  0.46007987E+002  0.64215708E+002
  0.28192863E+002  0.45988436E+002  0.51967294E+002
  0.25613523E+002  0.40481749E+002  0.39721268E+002
  0.20650760E+002  0.29362193E+002  0.27482952E+002
  0.14805406E+002  0.16045276E+002  0.15249734E+002
  0.51771016E+001 -0.21061985E+001  0.30113258E+001
  0.36963620E+001 -0.38513627E+001  0.11317154E+003
  0.15188826E+002  0.15841437E+002  0.10093996E+003
  0.21059909E+002  0.29163353E+002  0.88700351E+002
  0.26379646E+002  0.40097107E+002  0.76459723E+002
  0.29147162E+002  0.45509185E+002  0.64214677E+002
  0.29185646E+002  0.45488132E+002  0.51967702E+002
  0.26506961E+002  0.40028348E+002  0.39722609E+002
  0.21346647E+002  0.29002623E+002  0.27484182E+002
  0.15265002E+002  0.15798399E+002  0.15245281E+002
  0.53104929E+001 -0.21774437E+001  0.30099047E+001
  0.37974520E+001 -0.38926578E+001  0.11317192E+003
  0.15644599E+002  0.15591146E+002  0.10094320E+003
  0.21753313E+002  0.28802908E+002  0.88700289E+002
  0.27268385E+002  0.39637713E+002  0.76459254E+002
  0.30131700E+002  0.44996389E+002  0.64213809E+002
  0.30170245E+002  0.44975570E+002  0.51968464E+002
  0.27394418E+002  0.39566726E+002  0.39722798E+002
  0.22037692E+002  0.28637863E+002  0.27483029E+002
  0.15719801E+002  0.15546396E+002  0.15242799E+002
  0.54426510E+001 -0.22479369E+001  0.30092970E+001
  
POLYGONS 90 450
      4      0      1     11     10
      4      1      2     12     11
      4      2      3     13     12
      4      3      4     14     13
      4      4      5     15     14
      4      5      6     16     15
      4      6      7     17     16
      4      7      8     18     17
      4      8      9     19     18
      4     10     11     21     20
      4     11     12     22     21
      4     12     13     23     22
      4     13     14     24     23
      4     14     15     25     24
      4     15     16     26     25
      4     16     17     27     26
      4     17     18     28     27
      4     18     19     29     28
      4     20     21     31     30
      4     21     22     32     31
      4     22     23     33     32
      4     23     24     34     33
      4     24     25     35     34
      4     25     26     36     35
      4     26     27     37     36
      4     27     28     38     37
      4     28     29     39     38
      4     30     31     41     40
      4     31     32     42     41
      4     32     33     43     42
      4     33     34     44     43
      4     34     35     45     44
      4     35     36     46     45
      4     36     37     47     46
      4     37     38     48     47
      4     38     39     49     48
      4     40     41     51     50
      4     41     42     52     51
      4     42     43     53     52
      4     43     44     54     53
      4     44     45     55     54
      4     45     46     56     55
      4     46     47     57     56
      4     47     48     58     57
      4     48     49     59     58
      4     50     51     61     60
      4     51     52     62     61
      4     52     53     63     62
      4     53     54     64     63
      4     54     55     65     64
      4     55     56     66     65
      4     56     57     67     66
      4     57     58     68     67
      4     58     59     69     68
      4     60     61     71     70
      4     61     62     72     71
      4     62     63     73     72
      4     63     64     74     73
      4     64     65     75     74
      4     65     66     76     75
      4     66     67     77     76
      4     67     68     78     77
      4     68     69     79     78
      4     70     71     81     80
      4     71     72     82     81
      4     72     73     83     82
      4     73     74     84     83
      4     74     75     85     84
      4     75     76     86     85
      4     76     77     87     86
      4     77     78     88     87
      4     78     79     89     88
      4     80     81     91     90
      4     81     82     92     91
      4     82     83     93     92
      4     83     84     94     93
      4     84     85     95     94
      4     85     86     96     95
      4     86     87     97     96
      4     87     88     98     97
      4     88     89     99     98
      4     90     91    101    100
      4     91     92    102    101
      4     92     93    103    102
      4     93     94    104    103
      4     94     95    105    104
      4     95     96    106    105
      4     96     97    107    106
      4     97     98    108    107
      4     98     99    109    108
  
CELL_DATA 90
SCALARS Gamma double
LOOKUP_TABLE default
  0.11292674E+003
  0.53623803E+002
  0.23638794E+002
  0.37005578E+002
  0.56792342E+002
  0.48905703E+002
  0.36093337E+002
  0.50794710E+002
  0.57065085E+002
  0.11292674E+003
  0.53623803E+002
  0.23638794E+002
  0.37005578E+002
  0.56792342E+002
  0.48905703E+002
  0.36093337E+002
  0.50794710E+002
  0.57065085E+002
  0.10000560E+003
  0.49889924E+002
  0.22951288E+002
  0.35053800E+002
  0.52787068E+002
  0.45703218E+002
  0.34215870E+002
  0.47591404E+002
  0.52785673E+002
  0.80240252E+002
  0.41003710E+002
  0.20324579E+002
  0.30230284E+002
  0.43423174E+002
  0.37859980E+002
  0.29248693E+002
  0.40490246E+002
  0.44129981E+002
  0.57999852E+002
  0.30493256E+002
  0.16374694E+002
  0.23384678E+002
  0.31974723E+002
  0.28167340E+002
  0.22576558E+002
  0.31041105E+002
  0.33225043E+002
  0.35761694E+002
  0.19421458E+002
  0.11297451E+002
  0.15331624E+002
  0.19929530E+002
  0.17800053E+002
  0.14857698E+002
  0.20276385E+002
  0.21328000E+002
  0.15959946E+002
  0.89899100E+001
  0.56573961E+001
  0.72274289E+001
  0.89183685E+001
  0.81136264E+001
  0.70842443E+001
  0.95628548E+001
  0.98835952E+001
  0.32256505E+001
  0.18979344E+001
  0.12865983E+001
  0.15436262E+001
  0.18072758E+001
  0.16817938E+001
  0.15339126E+001
  0.20388992E+001
  0.20787311E+001
  0.37831218E-001
  0.23374740E-001
  0.16846978E-001
  0.18749696E-001
  0.20843277E-001
  0.19884976E-001
  0.19074689E-001
  0.25027292E-001
  0.25240302E-001
  0.00000000E+000
  0.00000000E+000
  0.00000000E+000
  0.00000000E+000
  0.00000000E+000
  0.00000000E+000
  0.00000000E+000
  0.00000000E+000
  0.00000000E+000
POINT_DATA 110
VECTORS Uconv double
  0.00000000E+000  0.00000000E+000  0.00000000E+000
  0.00000000E+000  0.00000000E+000  0.00000000E+000
  0.00000000E+000  0.00000000E+000  0.00000000E+000
  0.00000000E+000  0.00000000E+000  0.00000000E+000
  0.00000000E+000  0.00000000E+000  0.00000000E+000
  0.00000000E+000  0.00000000E+000  0.00000000E+000
  0.00000000E+000  0.00000000E+000  0.00000000E+000
  0.00000000E+000  0.00000000E+000  0.00000000E+000
  0.00000000E+000  0.00000000E+000  0.00000000E+000
  0.00000000E+000  0.00000000E+000  0.00000000E+000
  0.00000000E+000  0.00000000E+000  0.00000000E+000
  0.00000000E+000  0.00000000E+000  0.00000000E+000
  0.00000000E+000  0.00000000E+000  0.00000000E+000
  0.00000000E+000  0.00000000E+000  0.00000000E+000
  0.00000000E+000  0.00000000E+000  0.00000000E+000
  0.00000000E+000  0.00000000E+000  0.00000000E+000
  0.00000000E+000  0.00000000E+000  0.00000000E+000
  0.00000000E+000  0.00000000E+000  0.00000000E+000
  0.00000000E+000  0.00000000E+000  0.00000000E+000
  0.00000000E+000  0.00000000E+000  0.00000000E+000
  0.17156459E+002  0.82368777E-001 -0.35922623E+000
  0.17110478E+002 -0.21938831E+000 -0.10828772E+001
  0.17109825E+002 -0.18453346E+000 -0.22564321E+000
  0.17058056E+002 -0.31541615E+000 -0.16845673E+000
  0.16869974E+002 -0.79688100E+000 -0.12683302E+000
  0.16842735E+002 -0.87607498E+000  0.17701342E+000
  0.17005416E+002 -0.44758119E+000  0.26867112E+000
  0.17076846E+002 -0.26051580E+000  0.28832182E+000
  0.17081258E+002 -0.22281299E+000  0.33085384E+000
  0.17081550E+002  0.26710535E-001  0.71158415E+000
  0.17159822E+002  0.90686598E-001 -0.35701837E+000
  0.17129232E+002 -0.18535790E+000 -0.88406880E+000
  0.17126837E+002 -0.14661301E+000 -0.17874676E+000
  0.17079939E+002 -0.26801680E+000 -0.13619898E+000
  0.16911393E+002 -0.69117186E+000 -0.10814967E+000
  0.16890072E+002 -0.75301489E+000  0.14929320E+000
  0.17034987E+002 -0.37518746E+000  0.21942664E+000
  0.17096730E+002 -0.21615266E+000  0.23482020E+000
  0.17096875E+002 -0.18877739E+000  0.28327047E+000
  0.17086766E+002  0.33599958E-001  0.68434060E+000
  0.17163102E+002  0.99192190E-001 -0.35491788E+000
  0.17146435E+002 -0.14845347E+000 -0.66751417E+000
  0.17147298E+002 -0.10255907E+000 -0.12402637E+000
  0.17113166E+002 -0.19690567E+000 -0.89538099E-001
  0.16986939E+002 -0.50922241E+000 -0.77154217E-001
  0.16973744E+002 -0.54779951E+000  0.10600393E+000
  0.17079111E+002 -0.27245813E+000  0.15094378E+000
  0.17120612E+002 -0.16465160E+000  0.17271335E+000
  0.17113408E+002 -0.15326028E+000  0.22876702E+000
  0.17091954E+002  0.40495663E-001  0.65869937E+000
  0.17166299E+002  0.10789266E+000 -0.35289943E+000
  0.17162388E+002 -0.10877179E+000 -0.44799507E+000
  0.17170226E+002 -0.54756911E-001 -0.64346932E-001
  0.17154630E+002 -0.11031360E+000 -0.33461898E-001
  0.17085923E+002 -0.28034217E+000 -0.37656026E-001
  0.17081192E+002 -0.29394331E+000  0.52406289E-001
  0.17132900E+002 -0.15195959E+000  0.71052750E-001
  0.17146996E+002 -0.10920624E+000  0.10554400E+000
  0.17130468E+002 -0.11715505E+000  0.16983279E+000
  0.17097088E+002  0.47377148E-001  0.63454792E+000
  0.17169418E+002  0.11677867E+000 -0.35095799E+000
  0.17177413E+002 -0.68643931E-001 -0.24037753E+000
  0.17194337E+002 -0.60682317E-002 -0.32009706E-002
  0.17198811E+002 -0.20263093E-001  0.24632349E-001
  0.17190459E+002 -0.48083969E-001  0.37765463E-002
  0.17193679E+002 -0.39720916E-001 -0.22409484E-002
  0.17189148E+002 -0.30749893E-001 -0.96350927E-002
  0.17174361E+002 -0.53248779E-001  0.37376468E-001
  0.17147599E+002 -0.81412594E-001  0.10830832E+000
  0.17102110E+002  0.54186832E-001  0.61177772E+000
  0.17172459E+002  0.12583950E+000 -0.34908580E+000
  0.17192574E+002 -0.29483588E-001 -0.57093874E-001
  0.17218227E+002  0.40568777E-001  0.55770902E-001
  0.17239853E+002  0.60604768E-001  0.76973880E-001
  0.17282540E+002  0.14568991E+000  0.40529239E-001
  0.17292075E+002  0.16994339E+000 -0.49157481E-001
  0.17240450E+002  0.74644581E-001 -0.80636291E-001
  0.17201127E+002 -0.14321979E-003 -0.27740227E-001
  0.17164450E+002 -0.46981380E-001  0.46875776E-001
  0.17107054E+002  0.60972090E-001  0.59032094E+000
  0.17203263E+002  0.19291125E+000 -0.57313439E+000
  0.17204678E+002 -0.18601026E-002  0.69383653E-001
  0.17240864E+002  0.82861340E-001  0.97822062E-001
  0.17272940E+002  0.12288100E+000  0.11762259E+000
  0.17349114E+002  0.27534799E+000  0.67373131E-001
  0.17362972E+002  0.30835038E+000 -0.82477893E-001
  0.17281131E+002  0.15324750E+000 -0.13495085E+000
  0.17226192E+002  0.47177978E-001 -0.80500539E-001
  0.17181122E+002 -0.15064125E-001 -0.75474767E-002
  0.17111867E+002  0.67674446E-001  0.57009711E+000
  0.17195676E+002  0.18171061E+000 -0.52526378E+000
  0.17219975E+002  0.34437197E-001  0.17002380E+000
  0.17260432E+002  0.11820048E+000  0.14469325E+000
  0.17257385E+002  0.78532223E-001  0.98915632E-001
  0.17350416E+002  0.25767188E+000  0.40019428E-001
  0.17356395E+002  0.27255046E+000 -0.46898180E-001
  0.17261087E+002  0.95768391E-001 -0.11290094E+000
  0.17247847E+002  0.86869145E-001 -0.13056859E+000
  0.17199568E+002  0.11106296E-001 -0.58442021E-001
  0.17116529E+002  0.74274291E-001  0.55103108E+000
  0.17192637E+002  0.17974019E+000 -0.49199911E+000
  0.17236463E+002  0.69046996E-001  0.22881847E+000
  0.17276308E+002  0.14592025E+000  0.18203111E+000
  0.17276689E+002  0.11444039E+000  0.12202923E+000
  0.17367812E+002  0.28372447E+000  0.53523572E-001
  0.17372819E+002  0.29508073E+000 -0.62320667E-001
  0.17284043E+002  0.13872003E+000 -0.14253422E+000
  0.17265305E+002  0.11800385E+000 -0.17020366E+000
  0.17214118E+002  0.37397312E-001 -0.10373157E+000
  0.17121050E+002  0.80761227E-001  0.53303874E+000
