# vtk DataFile Version 2.0
BldPointCP.BldB
ASCII
 
DATASET POLYDATA
POINTS 9 double
  0.42831962E+001  0.10659461E+002  0.10632510E+003
  0.10421805E+002  0.26139166E+002  0.94555072E+002
  0.15346333E+002  0.38503163E+002  0.82357449E+002
  0.18668842E+002  0.46830436E+002  0.70094506E+002
  0.19730422E+002  0.49492606E+002  0.58090474E+002
  0.18657859E+002  0.46800172E+002  0.46092440E+002
  0.15335570E+002  0.38467711E+002  0.33827217E+002
  0.10412167E+002  0.26118540E+002  0.21606440E+002
  0.42449498E+001  0.10646887E+002  0.98371116E+001
  
POINT_DATA 9
SCALARS Gamma_LL double
LOOKUP_TABLE default
  0.10027813E+003
  0.48770070E+002
  0.23347119E+002
  0.35469586E+002
  0.51734947E+002
  0.44892107E+002
  0.34266464E+002
  0.47929984E+002
  0.52810950E+002
VECTORS Vind_CP double
  0.40064952E-002 -0.67171187E-001 -0.35410616E+000
 -0.40921477E-001 -0.63182362E-001 -0.10581895E+000
 -0.16604103E-001 -0.36607313E-001 -0.47262472E-002
 -0.50185646E-001 -0.17195396E+000 -0.36055552E-001
 -0.10977343E+000 -0.33965216E+000  0.45366059E-002
 -0.74026382E-001 -0.23372997E+000  0.72574543E-001
 -0.36654539E-001 -0.96942243E-001  0.57402845E-001
 -0.52257422E-001 -0.11623749E+000  0.12182982E+000
 -0.61705383E-001 -0.52947608E-001  0.14010914E+000
VECTORS Vtot_CP double
  0.35182717E+002 -0.80023750E+001  0.34383165E+000
  0.63671079E+002 -0.19908638E+002  0.29853373E+000
  0.86073122E+002 -0.29685735E+002 -0.70802115E+000
  0.10147083E+003 -0.34875999E+002 -0.50965367E+000
  0.10659465E+003 -0.35798623E+002  0.98923868E-001
  0.10160573E+003 -0.34024775E+002  0.54390335E+000
  0.86297468E+002 -0.28526743E+002  0.84247327E+000
  0.64066277E+002 -0.19337861E+002  0.42771360E+000
  0.36317850E+002 -0.77000966E+001  0.31657148E-001
VECTORS Vstr_CP double
 -0.17978710E+002  0.79352039E+001 -0.69793780E+000
 -0.46512001E+002  0.19845455E+002 -0.40435268E+000
 -0.68889726E+002  0.29649128E+002  0.70329490E+000
 -0.84321014E+002  0.34704045E+002  0.47359812E+000
 -0.89504428E+002  0.35458970E+002 -0.94387262E-001
 -0.84479761E+002  0.33791045E+002 -0.47132880E+000
 -0.69134122E+002  0.28429801E+002 -0.78507043E+000
 -0.46918535E+002  0.19221623E+002 -0.30588378E+000
 -0.19179555E+002  0.76471490E+001  0.10845199E+000
VECTORS Vwnd_CP double
  0.17200000E+002 -0.00000000E+000  0.00000000E+000
  0.17200000E+002 -0.00000000E+000  0.00000000E+000
  0.17200000E+002 -0.00000000E+000  0.00000000E+000
  0.17200000E+002 -0.00000000E+000  0.00000000E+000
  0.17200000E+002 -0.00000000E+000  0.00000000E+000
  0.17200000E+002 -0.00000000E+000  0.00000000E+000
  0.17200000E+002 -0.00000000E+000  0.00000000E+000
  0.17200000E+002 -0.00000000E+000  0.00000000E+000
  0.17200000E+002 -0.00000000E+000  0.00000000E+000
VECTORS Tangent double
  0.79764361E+000 -0.60312904E+000  0.18749878E-003
  0.92765246E+000 -0.37344452E+000 -0.32889198E-003
  0.93011975E+000 -0.36725638E+000  0.97019839E-004
  0.92971634E+000 -0.36827638E+000  0.18757511E-003
  0.92834020E+000 -0.37173171E+000 -0.30712411E-004
  0.92898977E+000 -0.37010534E+000 -0.19226385E-003
  0.92957984E+000 -0.36862083E+000 -0.62780645E-004
  0.92873632E+000 -0.37074094E+000  0.83186999E-004
  0.92859012E+000 -0.37110319E+000  0.16786271E-002
VECTORS Normal double
  0.31822147E+000  0.42111481E+000  0.84935117E+000
  0.23979282E+000  0.59498020E+000  0.76713621E+000
  0.26028417E+000  0.65938643E+000  0.70530964E+000
  0.33069864E+000  0.83507498E+000  0.43964552E+000
  0.37173109E+000  0.92833878E+000 -0.17622760E-002
  0.33203646E+000  0.83366352E+000 -0.44131272E+000
  0.26161974E+000  0.65986682E+000 -0.70436560E+000
  0.23834442E+000  0.59690033E+000 -0.76609525E+000
  0.19144925E+000  0.47516771E+000 -0.85881478E+000
VECTORS Orth double
  0.51234732E+000  0.67741987E+000 -0.52782815E+000
  0.28628713E+000  0.71171466E+000 -0.64148416E+000
  0.25909344E+000  0.65599717E+000 -0.70889936E+000
  0.16206770E+000  0.40868359E+000 -0.89817135E+000
 -0.68360538E-003 -0.16245749E-002 -0.99999845E+000
 -0.16349248E+000 -0.40991117E+000 -0.89735335E+000
 -0.25968526E+000 -0.65474764E+000 -0.70983738E+000
 -0.28397322E+000 -0.71152031E+000 -0.64272705E+000
 -0.31791128E+000 -0.79780829E+000 -0.51228347E+000
