# vtk DataFile Version 2.0
BldPointCP.BldB
ASCII
 
DATASET POLYDATA
POINTS 9 double
  0.32056644E+001  0.11078095E+002  0.10627896E+003
  0.75759559E+001  0.27159722E+002  0.94516199E+002
  0.11113583E+002  0.40042587E+002  0.82385116E+002
  0.13492930E+002  0.48647468E+002  0.70118573E+002
  0.14244611E+002  0.51330729E+002  0.58084229E+002
  0.13483485E+002  0.48539520E+002  0.46067307E+002
  0.11099304E+002  0.39932119E+002  0.33784546E+002
  0.75376999E+001  0.27109363E+002  0.21585034E+002
  0.30714529E+001  0.11042689E+002  0.98393528E+001
  
POINT_DATA 9
SCALARS Gamma_LL double
LOOKUP_TABLE default
  0.11145705E+003
  0.49363463E+002
  0.17093481E+002
  0.23309121E+002
  0.45241010E+002
  0.38508614E+002
  0.26038023E+002
  0.37424747E+002
  0.45219225E+002
VECTORS Vind_CP double
  0.16380649E-001 -0.10365531E+000 -0.48581201E+000
 -0.64917747E-001 -0.12756741E+000 -0.18605037E+000
 -0.35623644E-001 -0.82057924E-001 -0.19456252E-001
 -0.65481549E-001 -0.27297806E+000 -0.26706236E-001
 -0.13286510E+000 -0.55015069E+000  0.24283048E-001
 -0.11517274E+000 -0.42338284E+000  0.12041656E+000
 -0.63628186E-001 -0.18385597E+000  0.10307795E+000
 -0.61082707E-001 -0.17174432E+000  0.16466059E+000
 -0.10678895E+000 -0.67132710E-001  0.12547285E+000
VECTORS Vtot_CP double
  0.35076287E+002 -0.60635519E+001  0.25911725E+000
  0.65192412E+002 -0.14568545E+002  0.55618864E+000
  0.89176420E+002 -0.21913347E+002 -0.28488306E+000
  0.10526198E+003 -0.25816417E+002 -0.31017562E+000
  0.11027134E+003 -0.26226870E+002  0.15887675E+000
  0.10493805E+003 -0.24662977E+002  0.51401273E+000
  0.89066781E+002 -0.20645098E+002  0.75842208E+000
  0.65901413E+002 -0.14070503E+002  0.51330268E+000
  0.36984426E+002 -0.56019987E+001  0.11914420E+000
VECTORS Vstr_CP double
 -0.17859906E+002  0.59598966E+001 -0.74492927E+000
 -0.48057330E+002  0.14440978E+002 -0.74223901E+000
 -0.72012044E+002  0.21831289E+002  0.26542681E+000
 -0.88127459E+002  0.25543439E+002  0.28346938E+000
 -0.93204208E+002  0.25676720E+002 -0.13459370E+000
 -0.87853225E+002  0.24239594E+002 -0.39359617E+000
 -0.71930409E+002  0.20461242E+002 -0.65534413E+000
 -0.48762496E+002  0.13898759E+002 -0.34864208E+000
 -0.19891215E+002  0.55348660E+001  0.63286536E-002
VECTORS Vwnd_CP double
  0.17200000E+002  0.00000000E+000  0.00000000E+000
  0.17200000E+002  0.00000000E+000  0.00000000E+000
  0.17200000E+002  0.00000000E+000  0.00000000E+000
  0.17200000E+002  0.00000000E+000  0.00000000E+000
  0.17200000E+002  0.00000000E+000  0.00000000E+000
  0.17200000E+002  0.00000000E+000  0.00000000E+000
  0.17200000E+002  0.00000000E+000  0.00000000E+000
  0.17200000E+002  0.00000000E+000  0.00000000E+000
  0.17200000E+002  0.00000000E+000  0.00000000E+000
VECTORS Tangent double
  0.85476686E+000 -0.51901148E+000  0.83302168E-003
  0.96079546E+000 -0.27724941E+000 -0.22003198E-002
  0.96518097E+000 -0.26157701E+000 -0.17805997E-002
  0.96492734E+000 -0.26251665E+000 -0.47711555E-003
  0.96233586E+000 -0.27186333E+000 -0.11318544E-003
  0.96329488E+000 -0.26844536E+000 -0.23876465E-003
  0.96444466E+000 -0.26428486E+000 -0.11743572E-003
  0.96335395E+000 -0.26823340E+000  0.77550976E-004
  0.96303337E+000 -0.26935017E+000  0.41501797E-002
VECTORS Normal double
  0.27563043E+000  0.45529820E+000  0.84659992E+000
  0.17833158E+000  0.61188461E+000  0.77058099E+000
  0.18594587E+000  0.68129362E+000  0.70799939E+000
  0.23701560E+000  0.87040937E+000  0.43152188E+000
  0.27185770E+000  0.96231845E+000 -0.60497807E-002
  0.24141195E+000  0.86667591E+000 -0.43656975E+000
  0.18762498E+000  0.68500550E+000 -0.70396331E+000
  0.17177993E+000  0.61672145E+000 -0.76820980E+000
  0.14145025E+000  0.49250909E+000 -0.85873548E+000
VECTORS Orth double
  0.43977435E+000  0.72341595E+000 -0.53222917E+000
  0.21229678E+000  0.74076311E+000 -0.63733829E+000
  0.18398326E+000  0.68367863E+000 -0.70621080E+000
  0.11286639E+000  0.41650035E+000 -0.90210234E+000
 -0.17536340E-002 -0.57911506E-002 -0.99998169E+000
 -0.11740206E+000 -0.42048777E+000 -0.89967038E+000
 -0.18612728E+000 -0.67891162E+000 -0.71023633E+000
 -0.20601170E+000 -0.74007127E+000 -0.64019816E+000
 -0.22925654E+000 -0.82757796E+000 -0.51240234E+000
