# vtk DataFile Version 2.0
BldPointCP.BldB
ASCII
 
DATASET POLYDATA
POINTS 9 double
  0.37435095E+001  0.10883667E+002  0.10630225E+003
  0.90098637E+001  0.26689844E+002  0.94538015E+002
  0.13253238E+002  0.39331243E+002  0.82374491E+002
  0.16109939E+002  0.47807422E+002  0.70107921E+002
  0.17015321E+002  0.50485068E+002  0.58087603E+002
  0.16095830E+002  0.47741697E+002  0.46079307E+002
  0.13238209E+002  0.39259577E+002  0.33804979E+002
  0.89885656E+001  0.26653752E+002  0.21596005E+002
  0.36634898E+001  0.10860641E+002  0.98389323E+001
  
POINT_DATA 9
SCALARS Gamma_LL double
LOOKUP_TABLE default
  0.11523058E+003
  0.52652058E+002
  0.20197811E+002
  0.31832554E+002
  0.53871936E+002
  0.46006156E+002
  0.32269965E+002
  0.45890382E+002
  0.53393390E+002
VECTORS Vind_CP double
  0.25666194E-001 -0.91021279E-001 -0.46978303E+000
 -0.55640762E-001 -0.95783105E-001 -0.15158054E+000
 -0.24347459E-001 -0.55581446E-001 -0.34625997E-002
 -0.61642425E-001 -0.25469798E+000 -0.34557836E-001
 -0.14310433E+000 -0.51728286E+000  0.13869096E-001
 -0.10339412E+000 -0.37171229E+000  0.10604018E+000
 -0.51674801E-001 -0.14688296E+000  0.81975580E-001
 -0.60773807E-001 -0.15372453E+000  0.15268450E+000
 -0.90349212E-001 -0.64393440E-001  0.14309327E+000
VECTORS Vtot_CP double
  0.35125633E+002 -0.70510910E+001  0.29831769E+000
  0.64483413E+002 -0.17327909E+002  0.44776569E+000
  0.87717565E+002 -0.25979881E+002 -0.55208278E+000
  0.10350365E+003 -0.30459908E+002 -0.45396560E+000
  0.10859398E+003 -0.31028297E+002  0.14133853E+000
  0.10342509E+003 -0.29363859E+002  0.58249212E+000
  0.87785676E+002 -0.24648851E+002  0.88075776E+000
  0.65042058E+002 -0.16760261E+002  0.53455049E+000
  0.36671860E+002 -0.66650231E+001  0.99374962E-001
VECTORS Vstr_CP double
 -0.17899967E+002  0.69600697E+001 -0.76810073E+000
 -0.47339054E+002  0.17232126E+002 -0.59934623E+000
 -0.70541912E+002  0.25924299E+002  0.54862018E+000
 -0.86365293E+002  0.30205210E+002  0.41940777E+000
 -0.91537087E+002  0.30511014E+002 -0.12746944E+000
 -0.86328485E+002  0.28992147E+002 -0.47645193E+000
 -0.70637351E+002  0.24501968E+002 -0.79878218E+000
 -0.47902832E+002  0.16606536E+002 -0.38186599E+000
 -0.19562209E+002  0.66006297E+001  0.43718311E-001
VECTORS Vwnd_CP double
  0.17200000E+002 -0.00000000E+000  0.00000000E+000
  0.17200000E+002 -0.00000000E+000  0.00000000E+000
  0.17200000E+002 -0.00000000E+000  0.00000000E+000
  0.17200000E+002 -0.00000000E+000  0.00000000E+000
  0.17200000E+002 -0.00000000E+000  0.00000000E+000
  0.17200000E+002 -0.00000000E+000  0.00000000E+000
  0.17200000E+002 -0.00000000E+000  0.00000000E+000
  0.17200000E+002 -0.00000000E+000  0.00000000E+000
  0.17200000E+002 -0.00000000E+000  0.00000000E+000
VECTORS Tangent double
  0.82728962E+000 -0.56177550E+000  0.41420494E-003
  0.94552119E+000 -0.32555851E+000 -0.11566367E-002
  0.94927805E+000 -0.31443733E+000 -0.59655750E-003
  0.94884161E+000 -0.31575243E+000  0.93542875E-005
  0.94658949E+000 -0.32244121E+000 -0.33894237E-004
  0.94746721E+000 -0.31985285E+000 -0.17543353E-003
  0.94847468E+000 -0.31685294E+000 -0.68450132E-004
  0.94742055E+000 -0.31999107E+000  0.85410290E-004
  0.94716049E+000 -0.32074703E+000  0.28906019E-002
VECTORS Normal double
  0.29744920E+000  0.43865900E+000  0.84799897E+000
  0.20894366E+000  0.60410393E+000  0.76902600E+000
  0.22291646E+000  0.67163847E+000  0.70654796E+000
  0.28424868E+000  0.85418518E+000  0.43539679E+000
  0.32243892E+000  0.94658313E+000 -0.36775201E-002
  0.28734151E+000  0.85140289E+000 -0.43880289E+000
  0.22491596E+000  0.67342061E+000 -0.70421410E+000
  0.20528980E+000  0.60761146E+000 -0.76724469E+000
  0.16669785E+000  0.48451674E+000 -0.85875221E+000
VECTORS Orth double
  0.47656675E+000  0.70141754E+000 -0.52999771E+000
  0.24966423E+000  0.72737205E+000 -0.63921645E+000
  0.22176438E+000  0.67084345E+000 -0.70766491E+000
  0.13748559E+000  0.41311993E+000 -0.90023865E+000
 -0.12178677E-002 -0.34701730E-002 -0.99999324E+000
 -0.14050172E+000 -0.41570094E+000 -0.89858332E+000
 -0.22317840E+000 -0.66791384E+000 -0.70998768E+000
 -0.24545956E+000 -0.72692092E+000 -0.64135449E+000
 -0.27404168E+000 -0.81385802E+000 -0.51238295E+000
