# vtk DataFile Version 2.0
BldPointCP.BldB
ASCII
 
DATASET POLYDATA
POINTS 9 double
  0.23107651E+001  0.11333746E+002  0.10624541E+003
  0.51474255E+001  0.27754549E+002  0.94474920E+002
  0.74623152E+001  0.40946684E+002  0.82384220E+002
  0.90261537E+001  0.49726842E+002  0.70126660E+002
  0.95300542E+001  0.52415119E+002  0.58079198E+002
  0.90414002E+001  0.49551502E+002  0.46054784E+002
  0.74590993E+001  0.40781089E+002  0.33763384E+002
  0.50698313E+001  0.27686260E+002  0.21572239E+002
  0.20656760E+001  0.11274268E+002  0.98387239E+001
  
POINT_DATA 9
SCALARS Gamma_LL double
LOOKUP_TABLE default
  0.10291981E+003
  0.43935981E+002
  0.17207899E+002
  0.13413874E+002
  0.30738966E+002
  0.26389535E+002
  0.18298592E+002
  0.25846231E+002
  0.31963509E+002
VECTORS Vind_CP double
 -0.50249961E-001 -0.12340430E+000 -0.44562981E+000
 -0.75284926E-001 -0.17956364E+000 -0.23764626E+000
 -0.52889535E-001 -0.11764347E+000 -0.65110402E-001
 -0.44337409E-001 -0.12716480E+000  0.37227230E-002
 -0.65490180E-001 -0.27382291E+000  0.28096461E-001
 -0.88104909E-001 -0.27613699E+000  0.87670168E-001
 -0.75699150E-001 -0.19956589E+000  0.12182843E+000
 -0.60253880E-001 -0.18365985E+000  0.17270847E+000
 -0.12317617E+000 -0.65593553E-001  0.98471139E-001
VECTORS Vtot_CP double
  0.35011242E+002 -0.43532424E+001  0.12143231E+000
  0.66088179E+002 -0.97495208E+001  0.57683877E+000
  0.91025006E+002 -0.14613442E+002  0.15760027E+000
  0.10751876E+003 -0.17495028E+002 -0.28918835E-001
  0.11242585E+003 -0.17838774E+002  0.11901892E+000
  0.10689667E+003 -0.16580838E+002  0.22905814E+000
  0.90738574E+002 -0.13756380E+002  0.34951836E+000
  0.67024547E+002 -0.94249625E+001  0.32676884E+000
  0.37389199E+002 -0.37887244E+001  0.11514176E+000
VECTORS Vstr_CP double
 -0.17861492E+002  0.42298381E+001 -0.56706213E+000
 -0.48963464E+002  0.95699572E+001 -0.81448504E+000
 -0.73877896E+002  0.14495798E+002 -0.22271067E+000
 -0.90363096E+002  0.17367863E+002  0.32641558E-001
 -0.95291344E+002  0.17564951E+002 -0.90922460E-001
 -0.89784776E+002  0.16304701E+002 -0.14138797E+000
 -0.73614273E+002  0.13556814E+002 -0.22768993E+000
 -0.49884801E+002  0.92413026E+001 -0.15406037E+000
 -0.20312375E+002  0.37231308E+001 -0.16670619E-001
VECTORS Vwnd_CP double
  0.17200000E+002  0.00000000E+000  0.00000000E+000
  0.17200000E+002  0.00000000E+000  0.00000000E+000
  0.17200000E+002  0.00000000E+000  0.00000000E+000
  0.17200000E+002  0.00000000E+000  0.00000000E+000
  0.17200000E+002  0.00000000E+000  0.00000000E+000
  0.17200000E+002  0.00000000E+000  0.00000000E+000
  0.17200000E+002  0.00000000E+000  0.00000000E+000
  0.17200000E+002  0.00000000E+000  0.00000000E+000
  0.17200000E+002  0.00000000E+000  0.00000000E+000
VECTORS Tangent double
  0.89596348E+000 -0.44412445E+000  0.17067897E-002
  0.98072285E+000 -0.19535738E+000 -0.42651224E-002
  0.98463328E+000 -0.17457710E+000 -0.44876478E-002
  0.98485433E+000 -0.17337455E+000 -0.17912177E-002
  0.98281641E+000 -0.18458539E+000 -0.37009414E-003
  0.98359428E+000 -0.18039424E+000 -0.46482763E-003
  0.98448548E+000 -0.17546587E+000 -0.25129680E-003
  0.98361024E+000 -0.18030779E+000  0.67835915E-004
  0.98329230E+000 -0.18193070E+000  0.61210437E-002
VECTORS Normal double
  0.23654391E+000  0.48044221E+000  0.84452487E+000
  0.12740373E+000  0.62273103E+000  0.77199375E+000
  0.12599709E+000  0.69237409E+000  0.71045257E+000
  0.15748215E+000  0.89016010E+000  0.42756797E+000
  0.18457220E+000  0.98276652E+000 -0.10152340E-001
  0.16227380E+000  0.88591281E+000 -0.43454080E+000
  0.12452218E+000  0.69966360E+000 -0.70353754E+000
  0.11528006E+000  0.62858332E+000 -0.76915116E+000
  0.98385951E-001  0.50286016E+000 -0.85875017E+000
VECTORS Orth double
  0.37589416E+000  0.75625971E+000 -0.53551361E+000
  0.14815865E+000  0.75765531E+000 -0.63561580E+000
  0.12092162E+000  0.70010068E+000 -0.70373078E+000
  0.72534935E-001  0.42137426E+000 -0.90398143E+000
 -0.22376897E-002 -0.99095768E-002 -0.99994840E+000
 -0.78800454E-001 -0.42733641E+000 -0.90065203E+000
 -0.12362265E+000 -0.69259121E+000 -0.71065805E+000
 -0.13864130E+000 -0.75655278E+000 -0.63906688E+000
 -0.15315499E+000 -0.84500466E+000 -0.51235795E+000
