# vtk DataFile Version 2.0
BldPointCP.BldC
ASCII
 
DATASET POLYDATA
POINTS 9 double
  0.83426620E+001 -0.79997215E+001  0.10626922E+003
  0.20152230E+002 -0.19754632E+002  0.94498600E+002
  0.29661548E+002 -0.29161753E+002  0.82380156E+002
  0.36045999E+002 -0.35415276E+002  0.70124570E+002
  0.38052846E+002 -0.37325200E+002  0.58086987E+002
  0.35999989E+002 -0.35264428E+002  0.46070203E+002
  0.29605906E+002 -0.29008095E+002  0.33796675E+002
  0.20083650E+002 -0.19700243E+002  0.21597651E+002
  0.81796438E+001 -0.80285486E+001  0.98424685E+001
  
POINT_DATA 9
SCALARS Gamma_LL double
LOOKUP_TABLE default
  0.57203613E+002
  0.10478180E+003
  0.78622191E+002
  0.90574613E+002
  0.10352873E+003
  0.10341252E+003
  0.95303967E+002
  0.10940618E+003
  0.31849398E+002
VECTORS Vind_CP double
 -0.14693785E+000 -0.24375298E+000 -0.40634796E+000
 -0.17000919E+000  0.14816526E+000 -0.29701286E+000
 -0.24777977E+000  0.21644941E+000 -0.20099524E+000
 -0.57369325E+000  0.45924651E+000 -0.18196262E+000
 -0.83135449E+000  0.65388133E+000  0.18118077E-001
 -0.67266998E+000  0.54538163E+000  0.25914036E+000
 -0.34294067E+000  0.29968822E+000  0.30058555E+000
 -0.26287252E+000  0.21633546E+000  0.33408489E+000
 -0.91501649E-001 -0.47965948E-001  0.58439122E-001
VECTORS Vtot_CP double
  0.25245874E+000 -0.15612579E+002  0.55834251E+000
 -0.20434626E+002 -0.35686903E+002  0.82717082E+000
 -0.37690407E+002 -0.51554066E+002 -0.26614052E+000
 -0.48742986E+002 -0.63271191E+002 -0.37049046E+000
 -0.51669903E+002 -0.68192934E+002  0.30931034E+000
 -0.47966103E+002 -0.65065293E+002  0.82476503E+000
 -0.36597774E+002 -0.53335293E+002  0.10355194E+001
 -0.19185338E+002 -0.36088171E+002  0.64635256E+000
  0.25454117E+001 -0.14880664E+002  0.23699714E-001
VECTORS Vstr_CP double
  0.16800603E+002  0.15368827E+002 -0.96469047E+000
  0.37464617E+002  0.35835068E+002 -0.11241837E+001
  0.54642627E+002  0.51770515E+002  0.65145282E-001
  0.65369292E+002  0.63730437E+002  0.18852784E+000
  0.68038549E+002  0.68846815E+002 -0.29119226E+000
  0.64493433E+002  0.65610674E+002 -0.56562467E+000
  0.53454833E+002  0.53634981E+002 -0.73493382E+000
  0.36122465E+002  0.36304506E+002 -0.31226766E+000
  0.14563087E+002  0.14832698E+002  0.34739408E-001
VECTORS Vwnd_CP double
  0.17200000E+002  0.00000000E+000  0.00000000E+000
  0.17200000E+002  0.00000000E+000  0.00000000E+000
  0.17200000E+002  0.00000000E+000  0.00000000E+000
  0.17200000E+002  0.00000000E+000  0.00000000E+000
  0.17200000E+002  0.00000000E+000  0.00000000E+000
  0.17200000E+002  0.00000000E+000  0.00000000E+000
  0.17200000E+002  0.00000000E+000  0.00000000E+000
  0.17200000E+002  0.00000000E+000  0.00000000E+000
  0.17200000E+002  0.00000000E+000  0.00000000E+000
VECTORS Tangent double
 -0.48231092E+000 -0.87600008E+000 -0.20126723E-003
 -0.69710344E+000 -0.71695371E+000  0.49163137E-002
 -0.70903806E+000 -0.70516460E+000  0.28123509E-002
 -0.70719319E+000 -0.70701986E+000 -0.84085854E-003
 -0.70114606E+000 -0.71301762E+000 -0.27127837E-003
 -0.70291312E+000 -0.71127561E+000  0.38395218E-003
 -0.70403000E+000 -0.71017004E+000  0.52077579E-003
 -0.70024204E+000 -0.71390543E+000  0.34968490E-003
 -0.69976376E+000 -0.71435775E+000 -0.48669170E-002
VECTORS Normal double
  0.46672563E+000 -0.25716571E+000  0.84618732E+000
  0.45954025E+000 -0.44153259E+000  0.77063074E+000
  0.49832109E+000 -0.49822857E+000  0.70953815E+000
  0.63775839E+000 -0.63842722E+000  0.43090014E+000
  0.71299620E+000 -0.70112194E+000 -0.80275881E-002
  0.63959600E+000 -0.63231222E+000 -0.43714782E+000
  0.50341242E+000 -0.49957694E+000 -0.70498143E+000
  0.45730132E+000 -0.44892509E+000 -0.76768598E+000
  0.36910264E+000 -0.35571225E+000 -0.85862217E+000
VECTORS Orth double
  0.74131192E+000 -0.40803145E+000 -0.53288552E+000
  0.55033585E+000 -0.53946859E+000 -0.63726297E+000
  0.49893999E+000 -0.50449101E+000 -0.70466141E+000
  0.30519178E+000 -0.30419338E+000 -0.90239923E+000
 -0.55336126E-002  0.58219322E-002 -0.99996774E+000
 -0.31117536E+000  0.30703136E+000 -0.89938959E+000
 -0.50091686E+000  0.49606591E+000 -0.70922557E+000
 -0.54821217E+000  0.53740609E+000 -0.64082611E+000
 -0.61163218E+000  0.60262907E+000 -0.51258587E+000
