# vtk DataFile Version 2.0
BldPointCP.BldA
ASCII
 
DATASET POLYDATA
POINTS 9 double
 -0.11461321E+002  0.23528342E-014  0.10635529E+003
 -0.28093432E+002  0.56054736E-014  0.94569332E+002
 -0.41361853E+002  0.86745772E-014  0.82326304E+002
 -0.50347274E+002  0.11366889E-013  0.70072937E+002
 -0.53252554E+002  0.13045121E-013  0.58091453E+002
 -0.50347274E+002  0.14245059E-013  0.46109968E+002
 -0.41361853E+002  0.14606241E-013  0.33856601E+002
 -0.28093432E+002  0.14432899E-013  0.21613573E+002
 -0.11461321E+002  0.14040054E-013  0.98276162E+001
  
POINT_DATA 9
SCALARS Gamma_LL double
LOOKUP_TABLE default
  0.00000000E+000
  0.00000000E+000
  0.00000000E+000
  0.00000000E+000
  0.00000000E+000
  0.00000000E+000
  0.00000000E+000
  0.00000000E+000
  0.00000000E+000
VECTORS Vind_CP double
  0.00000000E+000  0.00000000E+000  0.00000000E+000
  0.00000000E+000  0.00000000E+000  0.00000000E+000
  0.00000000E+000  0.00000000E+000  0.00000000E+000
  0.00000000E+000  0.00000000E+000  0.00000000E+000
  0.00000000E+000  0.00000000E+000  0.00000000E+000
  0.00000000E+000  0.00000000E+000  0.00000000E+000
  0.00000000E+000  0.00000000E+000  0.00000000E+000
  0.00000000E+000  0.00000000E+000  0.00000000E+000
  0.00000000E+000  0.00000000E+000  0.00000000E+000
VECTORS Vtot_CP double
  0.40518307E-014  0.20643900E+002  0.00000000E+000
  0.10035090E-013  0.50601323E+002  0.00000000E+000
  0.15704470E-013  0.74500134E+002  0.00000000E+000
  0.20391222E-013  0.90684492E+002  0.00000000E+000
  0.23425984E-013  0.95917426E+002  0.00000000E+000
  0.25698281E-013  0.90684492E+002  0.00000000E+000
  0.26418845E-013  0.74500134E+002  0.00000000E+000
  0.26149815E-013  0.50601323E+002  0.00000000E+000
  0.25343991E-013  0.20643900E+002  0.00000000E+000
VECTORS Vstr_CP double
 -0.40518307E-014 -0.20643900E+002  0.00000000E+000
 -0.10035090E-013 -0.50601323E+002  0.00000000E+000
 -0.15704470E-013 -0.74500134E+002  0.00000000E+000
 -0.20391222E-013 -0.90684492E+002  0.00000000E+000
 -0.23425984E-013 -0.95917426E+002  0.00000000E+000
 -0.25698281E-013 -0.90684492E+002  0.00000000E+000
 -0.26418845E-013 -0.74500134E+002  0.00000000E+000
 -0.26149815E-013 -0.50601323E+002  0.00000000E+000
 -0.25343991E-013 -0.20643900E+002  0.00000000E+000
VECTORS Vwnd_CP double
  0.00000000E+000  0.00000000E+000  0.00000000E+000
  0.00000000E+000  0.00000000E+000  0.00000000E+000
  0.00000000E+000  0.00000000E+000  0.00000000E+000
  0.00000000E+000  0.00000000E+000  0.00000000E+000
  0.00000000E+000  0.00000000E+000  0.00000000E+000
  0.00000000E+000  0.00000000E+000  0.00000000E+000
  0.00000000E+000  0.00000000E+000  0.00000000E+000
  0.00000000E+000  0.00000000E+000  0.00000000E+000
  0.00000000E+000  0.00000000E+000  0.00000000E+000
VECTORS Tangent double
 -0.71403430E+000  0.70011071E+000  0.00000000E+000
  0.00000000E+000  0.10000000E+001  0.00000000E+000
  0.00000000E+000  0.10000000E+001  0.00000000E+000
  0.00000000E+000  0.10000000E+001  0.00000000E+000
  0.00000000E+000  0.10000000E+001  0.00000000E+000
  0.00000000E+000  0.10000000E+001  0.00000000E+000
  0.00000000E+000  0.10000000E+001  0.00000000E+000
  0.00000000E+000  0.10000000E+001  0.00000000E+000
  0.29605947E-015  0.10000000E+001  0.29605947E-015
VECTORS Normal double
 -0.45369765E+000 -0.46272065E+000  0.76160886E+000
 -0.64530104E+000  0.00000000E+000  0.76392838E+000
 -0.71010859E+000  0.00000000E+000  0.70409218E+000
 -0.89594021E+000  0.00000000E+000  0.44417467E+000
 -0.10000000E+001  0.00000000E+000  0.58038807E-015
 -0.89594021E+000  0.00000000E+000 -0.44417467E+000
 -0.71010859E+000  0.00000000E+000 -0.70409218E+000
 -0.64530104E+000  0.00000000E+000 -0.76392838E+000
 -0.51178288E+000  0.40586725E-015 -0.85911483E+000
VECTORS Orth double
 -0.53321052E+000 -0.54381485E+000 -0.64803700E+000
 -0.76392838E+000  0.00000000E+000 -0.64530104E+000
 -0.70409218E+000  0.00000000E+000 -0.71010859E+000
 -0.44417467E+000  0.00000000E+000 -0.89594021E+000
 -0.58038807E-015  0.00000000E+000 -0.10000000E+001
  0.44417467E+000  0.00000000E+000 -0.89594021E+000
  0.70409218E+000  0.00000000E+000 -0.71010859E+000
  0.76392838E+000  0.00000000E+000 -0.64530104E+000
  0.85911483E+000 -0.10283091E-015 -0.51178288E+000
