# vtk DataFile Version 2.0
Sgmt
ASCII
 
DATASET POLYDATA
POINTS 1350 double
  0.19238526E+000  0.43325007E-001  0.11318111E+003
 -0.19912308E+002 -0.47905733E+001  0.10115780E+003
 -0.34055999E+002 -0.82313021E+001  0.88974484E+002
 -0.45701146E+002 -0.11121729E+002  0.76620935E+002
 -0.51545558E+002 -0.12587125E+002  0.64358698E+002
 -0.51555934E+002 -0.12602409E+002  0.52114447E+002
 -0.45708653E+002 -0.11150791E+002  0.39856025E+002
 -0.34054297E+002 -0.82300243E+001  0.27493866E+002
 -0.19983280E+002 -0.48043456E+001  0.15240365E+002
  0.18005184E-003  0.47447191E-004  0.30001810E+001
 -0.41830292E+001 -0.10071283E+001  0.11313320E+003
 -0.20958033E+002 -0.50403490E+000  0.10115577E+003
 -0.34801849E+002 -0.52255904E+001  0.88976380E+002
 -0.46268569E+002 -0.87327309E+001  0.76614134E+002
 -0.52049220E+002 -0.10388300E+002  0.64354325E+002
 -0.52069717E+002 -0.10360906E+002  0.52118380E+002
 -0.46288741E+002 -0.86160301E+001  0.39855699E+002
 -0.34832717E+002 -0.48940221E+001  0.27497681E+002
 -0.21016509E+002 -0.42457019E+000  0.15242502E+002
 -0.10436935E+001  0.43772979E+001  0.30027066E+001
 -0.40290941E+001 -0.93420678E+000  0.11312810E+003
 -0.20800214E+002 -0.12332429E+000  0.10118202E+003
 -0.34735799E+002 -0.45953253E+001  0.88992990E+002
 -0.46267288E+002 -0.78970983E+001  0.76626521E+002
 -0.52079011E+002 -0.94488579E+001  0.64358910E+002
 -0.52097883E+002 -0.94211612E+001  0.52114812E+002
 -0.46282786E+002 -0.77804382E+001  0.39845336E+002
 -0.34758693E+002 -0.42640654E+001  0.27482754E+002
 -0.20858519E+002 -0.42879274E-001  0.15235175E+002
 -0.79487770E+000  0.43948608E+001  0.30068546E+001
 -0.39026005E+001 -0.86345052E+000  0.11312969E+003
 -0.20644161E+002  0.26107849E+000  0.10118181E+003
 -0.34656650E+002 -0.39472274E+001  0.88965287E+002
 -0.46278201E+002 -0.70302351E+001  0.76613168E+002
 -0.52136036E+002 -0.84693786E+001  0.64341587E+002
 -0.52151579E+002 -0.84393948E+001  0.52086821E+002
 -0.46291695E+002 -0.69115829E+001  0.39813999E+002
 -0.34678693E+002 -0.36194112E+001  0.27465071E+002
 -0.20693960E+002  0.34277439E+000  0.15229453E+002
 -0.54625261E+000  0.44103769E+001  0.30145831E+001
 -0.37732443E+001 -0.79219326E+000  0.11313090E+003
 -0.20479394E+002  0.64529863E+000  0.10116976E+003
 -0.34562411E+002 -0.32995029E+001  0.88936815E+002
 -0.46269799E+002 -0.61619800E+001  0.76600359E+002
 -0.52172403E+002 -0.74877063E+001  0.64325801E+002
 -0.52185029E+002 -0.74555279E+001  0.52060388E+002
 -0.46280692E+002 -0.60409617E+001  0.39785493E+002
 -0.34582673E+002 -0.29742547E+001  0.27451937E+002
 -0.20520164E+002  0.72736020E+000  0.15225659E+002
 -0.29758503E+000  0.44242973E+001  0.30226657E+001
 -0.36409103E+001 -0.71997852E+000  0.11313185E+003
 -0.20304018E+002  0.10274410E+001  0.10115914E+003
 -0.34451132E+002 -0.26530234E+001  0.88906263E+002
 -0.46235241E+002 -0.52936239E+001  0.76584415E+002
 -0.52180717E+002 -0.65049183E+001  0.64309600E+002
 -0.52193106E+002 -0.64704041E+001  0.52036463E+002
 -0.46247047E+002 -0.51693832E+001  0.39761260E+002
 -0.34474405E+002 -0.23294076E+001  0.27439151E+002
 -0.20337276E+002  0.11108189E+001  0.15222845E+002
 -0.48810022E-001  0.44363653E+001  0.30277684E+001
 -0.35053285E+001 -0.64659082E+000  0.11313290E+003
 -0.20118089E+002  0.14077127E+001  0.10114799E+003
 -0.34328721E+002 -0.20080975E+001  0.88879301E+002
 -0.46178386E+002 -0.44252377E+001  0.76567630E+002
 -0.52159137E+002 -0.55218745E+001  0.64294090E+002
 -0.52169711E+002 -0.54852934E+001  0.52016209E+002
 -0.46188561E+002 -0.42978702E+001  0.39742349E+002
 -0.34345762E+002 -0.16845072E+001  0.27435350E+002
 -0.20145001E+002  0.14928489E+001  0.15222213E+002
  0.20026570E+000  0.44468851E+001  0.30312521E+001
 -0.33663060E+001 -0.57123763E+000  0.11313364E+003
 -0.19923972E+002  0.17866307E+001  0.10111393E+003
 -0.34189212E+002 -0.13648954E+001  0.88850482E+002
 -0.46094134E+002 -0.35582621E+001  0.76547533E+002
 -0.52101031E+002 -0.45403005E+001  0.64277411E+002
 -0.52110184E+002 -0.45017612E+001  0.52000825E+002
 -0.46102405E+002 -0.34276416E+001  0.39730773E+002
 -0.34199586E+002 -0.10410505E+001  0.27437076E+002
 -0.19947688E+002  0.18727970E+001  0.15217836E+002
  0.44982638E+000  0.44560504E+001  0.30346657E+001
 -0.32234545E+001 -0.49473859E+000  0.11313488E+003
 -0.19735693E+002  0.21636176E+001  0.10109932E+003
 -0.34028640E+002 -0.72360236E+000  0.88816266E+002
 -0.45995385E+002 -0.26936559E+001  0.76533453E+002
 -0.52007167E+002 -0.35615408E+001  0.64260376E+002
 -0.52015060E+002 -0.35212233E+001  0.51989987E+002
 -0.45999892E+002 -0.25599435E+001  0.39718579E+002
 -0.34037278E+002 -0.39914524E+000  0.27443209E+002
 -0.19748707E+002  0.22513866E+001  0.15205872E+002
  0.69997697E+000  0.44639939E+001  0.30378386E+001
 -0.30765293E+001 -0.41711387E+000  0.11313652E+003
 -0.19521683E+002  0.25398484E+001  0.10106069E+003
 -0.33852715E+002 -0.84717361E-001  0.88782473E+002
 -0.45870129E+002 -0.18313744E+001  0.76516535E+002
 -0.51883790E+002 -0.25870421E+001  0.64245368E+002
 -0.51893284E+002 -0.25452925E+001  0.51981833E+002
 -0.45865908E+002 -0.16946488E+001  0.39718590E+002
 -0.33859334E+002  0.24074472E+000  0.27452630E+002
 -0.19529826E+002  0.26292652E+001  0.15210149E+002
  0.95077641E+000  0.44706204E+001  0.30408129E+001
 -0.29252772E+001 -0.33845100E+000  0.11313842E+003
 -0.19299518E+002  0.29143617E+001  0.10102238E+003
 -0.33662908E+002  0.55191972E+000  0.88750844E+002
 -0.45714683E+002 -0.97193777E+000  0.76492517E+002
 -0.51737088E+002 -0.16168974E+001  0.64230942E+002
 -0.51741070E+002 -0.15738676E+001  0.51978197E+002
 -0.45709416E+002 -0.83256245E+000  0.39723477E+002
 -0.33667453E+002  0.87854191E+000  0.27465282E+002
 -0.19303363E+002  0.30054669E+001  0.15218689E+002
  0.12025142E+001  0.44766060E+001  0.30424491E+001
 -0.27695121E+001 -0.25888404E+000  0.11314008E+003
 -0.19069309E+002  0.32883215E+001  0.10099042E+003
 -0.33460284E+002  0.11863087E+001  0.88722752E+002
 -0.45539478E+002 -0.11550711E+000  0.76469866E+002
 -0.51565375E+002 -0.65024408E+000  0.64218184E+002
 -0.51567608E+002 -0.60645027E+000  0.51977567E+002
 -0.45533928E+002  0.26144627E-001  0.39731518E+002
 -0.33462900E+002  0.15141189E+001  0.27478801E+002
 -0.19070057E+002  0.33801426E+001  0.15223382E+002
  0.14544464E+001  0.44810163E+001  0.30447700E+001
 -0.26089648E+001 -0.17865797E+000  0.11314086E+003
 -0.18831056E+002  0.36609220E+001  0.10096343E+003
 -0.33245299E+002  0.18183931E+001  0.88699472E+002
 -0.45343025E+002  0.73758593E+000  0.76448924E+002
 -0.51378200E+002  0.31329133E+000  0.64208823E+002
 -0.51378888E+002  0.35735658E+000  0.51978857E+002
 -0.45338696E+002  0.88122454E+000  0.39742829E+002
 -0.33247108E+002  0.21473614E+001  0.27492157E+002
 -0.18829413E+002  0.37524719E+001  0.15226380E+002
  0.17065412E+001  0.44840617E+001  0.30473594E+001
 -0.24433243E+001 -0.97968340E-001  0.11314055E+003
 -0.18586492E+002  0.40306621E+001  0.10092086E+003
 -0.33022565E+002  0.24485634E+001  0.88684431E+002
 -0.45132677E+002  0.15876053E+001  0.76433378E+002
 -0.51169819E+002  0.12732129E+001  0.64200986E+002
 -0.51169685E+002  0.13172303E+001  0.51983506E+002
 -0.45129628E+002  0.17326128E+001  0.39753756E+002
 -0.33037467E+002  0.27801825E+001  0.27485976E+002
 -0.18582546E+002  0.41234147E+001  0.15237580E+002
  0.19585955E+001  0.44860701E+001  0.30488093E+001
 -0.22735232E+001 -0.17045832E-001  0.11313961E+003
 -0.18335494E+002  0.44005458E+001  0.10089785E+003
 -0.32807810E+002  0.30799890E+001  0.88693330E+002
 -0.44910828E+002  0.24356198E+001  0.76422876E+002
 -0.50952831E+002  0.22310955E+001  0.64196983E+002
 -0.50951702E+002  0.22749592E+001  0.51986946E+002
 -0.44907246E+002  0.25810583E+001  0.39762614E+002
 -0.32809216E+002  0.34102461E+001  0.27485801E+002
 -0.18328777E+002  0.44924988E+001  0.15243975E+002
  0.22105225E+001  0.44866270E+001  0.30506576E+001
  0.19238526E+000  0.43325007E-001  0.11318111E+003
  0.59166828E+001  0.19719489E+002  0.10081863E+003
  0.10027851E+002  0.33733362E+002  0.88722678E+002
  0.13493697E+002  0.45426677E+002  0.76540297E+002
  0.15176946E+002  0.51097538E+002  0.64216233E+002
  0.15170484E+002  0.51032538E+002  0.51954507E+002
  0.13475802E+002  0.45302019E+002  0.39663376E+002
  0.10015748E+002  0.33665006E+002  0.27417820E+002
  0.58630432E+001  0.19698080E+002  0.15263383E+002
  0.18005184E-003  0.47447191E-004  0.30001810E+001
  0.32804492E+001 -0.32298508E+001  0.11319457E+003
  0.10124343E+002  0.18391525E+002  0.10081101E+003
  0.12998473E+002  0.32858166E+002  0.88716538E+002
  0.15854623E+002  0.44751877E+002  0.76539004E+002
  0.17338310E+002  0.50451756E+002  0.64216192E+002
  0.17370303E+002  0.50362372E+002  0.51954191E+002
  0.15971587E+002  0.44572243E+002  0.39662670E+002
  0.13301511E+002  0.32696179E+002  0.27417944E+002
  0.10172802E+002  0.18403485E+002  0.15263897E+002
  0.43127849E+001 -0.12846105E+001  0.30332481E+001
  0.33931263E+001 -0.32876752E+001  0.11318984E+003
  0.10624195E+002  0.18201980E+002  0.10079416E+003
  0.13758798E+002  0.32615675E+002  0.88712939E+002
  0.16828951E+002  0.44456618E+002  0.76537864E+002
  0.18413295E+002  0.50123855E+002  0.64215604E+002
  0.18443277E+002  0.50032654E+002  0.51955510E+002
  0.16941857E+002  0.44272628E+002  0.39665574E+002
  0.14058407E+002  0.32447153E+002  0.27422443E+002
  0.10672874E+002  0.18213606E+002  0.15267954E+002
  0.44593732E+001 -0.13619340E+001  0.30403827E+001
  0.34774758E+001 -0.33462196E+001  0.11318320E+003
  0.11112957E+002  0.18013931E+002  0.10079351E+003
  0.14510726E+002  0.32350206E+002  0.88712017E+002
  0.17795881E+002  0.44120778E+002  0.76528431E+002
  0.19487917E+002  0.49771670E+002  0.64214777E+002
  0.19515993E+002  0.49689798E+002  0.51959644E+002
  0.17905989E+002  0.43951536E+002  0.39676083E+002
  0.14809001E+002  0.32181176E+002  0.27434263E+002
  0.11169875E+002  0.18018642E+002  0.15271673E+002
  0.46048266E+001 -0.14383967E+001  0.30432691E+001
[...]
CELL_DATA 2475
SCALARS Gamma double
LOOKUP_TABLE default
 -0.44965370E+001
  0.44965370E+001
 -0.16004960E+003
  0.15555306E+003
 -0.14306796E+003
 -0.16981643E+002
 -0.11796503E+003
 -0.25102926E+002
 -0.10884325E+003
 -0.91217842E+001
 -0.10155356E+003
 -0.72896899E+001
 -0.11448531E+003
  0.12931751E+002
 -0.14673183E+003
  0.32246524E+002
 -0.66962699E+002
 -0.79769134E+002
 -0.66962699E+002
  0.00000000E+000
  0.44965370E+001
  0.00000000E+000
  0.15555306E+003
  0.00000000E+000
 -0.16981643E+002
  0.00000000E+000
 -0.25102926E+002
  0.00000000E+000
 -0.91217842E+001
  0.00000000E+000
 -0.72896899E+001
  0.00000000E+000
  0.12931751E+002
  0.00000000E+000
  0.32246524E+002
  0.00000000E+000
 -0.79769134E+002
 -0.66962699E+002
 -0.36945866E+000
  0.48659957E+001
 -0.95465673E+000
  0.15613826E+003
 -0.10533096E+001
 -0.16882991E+002
 -0.11176856E+001
 -0.25038550E+002
 -0.13557728E+001
 -0.88836971E+001
 -0.13436047E+001
 -0.73018580E+001
 -0.11356823E+001
  0.12723829E+002
 -0.11328832E+001
  0.32243725E+002
 -0.24528140E+001
 -0.78449203E+002
 -0.69415513E+002
 -0.14351985E+000
  0.50095155E+001
 -0.44288301E+000
  0.15643763E+003
  0.19745549E+000
 -0.17523329E+002
 -0.24051006E+001
 -0.22435994E+002
 -0.49591754E+001
 -0.63296223E+001
 -0.52127925E+001
 -0.70482410E+001
 -0.32331920E+001
  0.10744228E+002
 -0.20389841E+001
  0.31049517E+002
 -0.22450642E+001
 -0.78243123E+002
 -0.71660577E+002
 -0.13997529E+000
  0.51494908E+001
 -0.92830764E-001
  0.15639048E+003
  0.52297140E+000
 -0.18139131E+002
 -0.23503403E+001
 -0.19562683E+002
 -0.39115262E+001
 -0.47684364E+001
 -0.50048418E+001
 -0.59549254E+001
 -0.29758320E+001
  0.87152186E+001
 -0.17509083E+001
  0.29824593E+002
 -0.21431196E+001
 -0.77850912E+002
 -0.73803696E+002
  0.14837073E-001
  0.51346537E+001
  0.48806848E+001
  0.15152463E+003
  0.49326920E+001
 -0.18191138E+002
  0.12062066E+001
 -0.15836197E+002
 -0.13701543E+000
 -0.34252144E+001
 -0.79400306E+000
 -0.52979378E+001
  0.88270414E+000
  0.70385114E+001
  0.29489499E+001
  0.27758347E+002
  0.14956181E+000
 -0.75051524E+002
 -0.73654135E+002
  0.47592712E+000
  0.46587266E+001
  0.18303795E+002
  0.13369677E+003
  0.16748446E+002
 -0.16635789E+002
  0.12128025E+002
 -0.11215776E+002
  0.10640676E+002
 -0.19378658E+001
  0.10099609E+002
 -0.47568714E+001
  0.11731022E+002
  0.54070988E+001
  0.15972660E+002
  0.23516710E+002
  0.67350539E+001
 -0.65813918E+002
 -0.66919081E+002
  0.83211125E+000
  0.38266154E+001
  0.27867914E+002
  0.10666096E+003
  0.24918373E+002
 -0.13686248E+002
  0.20471167E+002
 -0.67685699E+001
  0.18877183E+002
 -0.34388132E+000
  0.18315604E+002
 -0.41952929E+001
  0.19841319E+002
  0.38813838E+001
  0.25575396E+002
  0.17782634E+002
  0.12482756E+002
 -0.52721278E+002
 -0.54436325E+002
  0.99235881E+000
  0.28342566E+001
  0.31099255E+002
  0.76554066E+002
  0.27415886E+002
 -0.10002878E+002
  0.23975277E+002
 -0.33279609E+001
  0.23038709E+002
  0.59268608E+000
  0.22064967E+002
 -0.32215504E+001
  0.23517145E+002
  0.24292057E+001
  0.29201645E+002
  0.12098133E+002
  0.14721714E+002
 -0.38241348E+002
 -0.39714610E+002
  0.10427003E+001
  0.17915563E+001
  0.30769127E+002
  0.46827639E+002
  0.26983230E+002
 -0.62169816E+001
  0.24776825E+002
 -0.11215561E+001
  0.24504431E+002
  0.86508056E+000
  0.23208485E+002
 -0.19256050E+001
  0.24544431E+002
  0.10932602E+001
  0.29638113E+002
  0.70044515E+001
  0.14999923E+002
 -0.23603158E+002
 -0.24714688E+002
  0.97299534E+000
  0.81856091E+000
  0.27077488E+002
  0.20723147E+002
  0.23657597E+002
 -0.27970910E+001
  0.22649332E+002
 -0.11329133E+000
  0.22929610E+002
  0.58480337E+000
  0.21802107E+002
 -0.79810264E+000
  0.22590109E+002
  0.30525857E+000
  0.26662817E+002
  0.29317436E+001
  0.13579584E+002
 -0.10519925E+002
 -0.11135103E+002
  0.64872544E+000
  0.16983547E+000
  0.17225887E+002
  0.41459856E+001
  0.14985761E+002
 -0.55696483E+000
  0.14823631E+002
  0.48838483E-001
  0.15253043E+002
  0.15539132E+000
  0.14596251E+002
 -0.14131106E+000
  0.14877618E+002
  0.23892066E-001
  0.17257262E+002
  0.55209979E+000
  0.88586096E+001
 -0.21212729E+001
 -0.22764939E+001
  0.16779964E+000
  0.20358333E-002
  0.42656912E+001
  0.48093971E-001
  0.37150864E+001
 -0.63599538E-002
  0.37625785E+001
  0.13463489E-002
  0.39157448E+001
  0.22250323E-002
  0.37758405E+001
 -0.14067937E-002
  0.37998844E+001
 -0.15175484E-003
  0.43459621E+001
  0.60219938E-002
  0.22494345E+001
 -0.24745317E-001
 -0.27059359E-001
  0.20358333E-002
  0.00000000E+000
  0.00000000E+000
  0.50129804E-001
 -0.00000000E+000
  0.00000000E+000
  0.43769850E-001
 -0.00000000E+000
  0.00000000E+000
  0.45116199E-001
 -0.00000000E+000
  0.00000000E+000
  0.47341231E-001
 -0.00000000E+000
  0.00000000E+000
  0.45934438E-001
 -0.00000000E+000
  0.00000000E+000
  0.45782683E-001
 -0.00000000E+000
  0.00000000E+000
  0.51804677E-001
 -0.00000000E+000
  0.00000000E+000
  0.27059359E-001
 -0.00000000E+000
  0.00000000E+000
 -0.00000000E+000
  0.11276037E+003
 -0.11276037E+003
  0.50388080E+002
  0.62372291E+002
  0.17760991E+002
  0.32627089E+002
  0.25946641E+002
 -0.81856491E+001
  0.48181962E+002
 -0.22235321E+002
  0.41039930E+002
  0.71420322E+001
  0.27958294E+002
  0.13081635E+002
  0.40072636E+002
 -0.12114342E+002
  0.47914078E+002
 -0.78414420E+001
  0.47914078E+002
  0.00000000E+000
 -0.11276037E+003
  0.00000000E+000
  0.62372291E+002
  0.00000000E+000
  0.32627089E+002
  0.00000000E+000
 -0.81856491E+001
  0.00000000E+000
 -0.22235321E+002
  0.00000000E+000
  0.71420322E+001
  0.00000000E+000
  0.13081635E+002
  0.00000000E+000
 -0.12114342E+002
  0.00000000E+000
 -0.78414420E+001
  0.47914078E+002
  0.96440690E+000
 -0.11372478E+003
  0.30383468E+001
  0.60298351E+002
  0.24640970E+001
  0.33201339E+002
  0.27259998E+001
 -0.84475520E+001
  0.29355673E+001
 -0.22444889E+002
  0.29039778E+001
  0.71736217E+001
  0.27987783E+001
  0.13186835E+002
  0.32219592E+001
 -0.12537523E+002
  0.28660719E+001
 -0.74855547E+001
  0.50780150E+002
  0.11519653E+001
 -0.11487674E+003
  0.10830052E+001
  0.60367311E+002
  0.10138338E+001
  0.33270510E+002
  0.29061155E+001
 -0.10339834E+002
  0.30168516E+001
 -0.22555625E+002
  0.25732902E+001
  0.76171830E+001
  0.20742879E+001
  0.13685837E+002
  0.28322246E+001
 -0.13295459E+002
  0.27283583E+001
 -0.73816885E+001
  0.53508508E+002
  0.62716214E+000
 -0.11550391E+003
  0.10896381E+001
  0.59904835E+002
  0.13834750E+001
  0.32976673E+002
  0.30181911E+001
 -0.11974550E+002
  0.27747242E+001
 -0.22312158E+002
  0.24218867E+001
  0.79700206E+001
  0.21885717E+001
  0.13919152E+002
  0.29364170E+001
 -0.14043304E+002
  0.26655115E+001
 -0.71107830E+001
  0.56174020E+002
 -0.28959937E+001
 -0.11260791E+003
 -0.48009835E+000
  0.57488939E+002
  0.10877219E+001
  0.31408853E+002
  0.19778335E+001
 -0.12864662E+002
  0.71827404E+000
 -0.21052598E+002
  0.73400206E+000
  0.79542925E+001
  0.12293416E+001
  0.13423813E+002
  0.15715189E+001
 -0.14385482E+002
  0.92866735E+000
 -0.64679314E+001
  0.57102687E+002
 -0.12602314E+002
 -0.10000560E+003
 -0.52290479E+001
  0.50115674E+002
 -0.75883078E+000
  0.26938636E+002
 -0.15209807E+001
 -0.12102512E+002
 -0.48403114E+001
 -0.17733268E+002
 -0.39698689E+001
  0.70838501E+001
 -0.20334040E+001
  0.11487348E+002
 -0.30433522E+001
 -0.13375534E+002
 -0.43170140E+001
 -0.51942696E+001
  0.52785673E+002
 -0.19765346E+002
 -0.80240252E+002
 -0.88862138E+001
  0.39236541E+002
 -0.26267096E+001
  0.20679132E+002
 -0.48235155E+001
 -0.99057057E+001
 -0.93638934E+001
 -0.13192890E+002
 -0.78432373E+001
  0.55631940E+001
 -0.49671768E+001
  0.86112870E+001
 -0.71011572E+001
 -0.11241553E+002
 -0.86556926E+001
 -0.36397342E+001
  0.44129981E+002
 -0.22240400E+002
 -0.57999852E+002
 -0.10510455E+002
  0.27506596E+002
 -0.39498849E+001
  0.14118562E+002
 -0.68456066E+001
 -0.70099840E+001
 -0.11448451E+002
 -0.85900453E+001
 -0.96926403E+001
  0.38073832E+001
 -0.66721349E+001
  0.55907816E+001
 -0.94491412E+001
 -0.84645468E+001
 -0.10904937E+002
 -0.21839384E+001
  0.33225043E+002
 -0.22238158E+002
 -0.35761694E+002
 -0.11071798E+002
  0.16340236E+002
 -0.50772428E+001
  0.81240071E+001
 -0.80530541E+001
 -0.40341727E+001
 -0.12045193E+002
 -0.45979064E+001
 -0.10367287E+002
  0.21294770E+001
 -0.77188607E+001
  0.29423555E+001
 -0.10764720E+002
 -0.54186876E+001
 -0.11897044E+002
 -0.10516144E+001
  0.21328000E+002
 -0.19801747E+002
 -0.15959946E+002
 -0.10431548E+002
  0.69700364E+001
 -0.56400549E+001
  0.33325139E+001
 -0.81041948E+001
 -0.15700328E+001
 -0.11011162E+002
 -0.16909396E+001
 -0.96864267E+001
  0.80474206E+000
 -0.77734533E+001
  0.10293821E+001
 -0.10713530E+002
 -0.24786105E+001
 -0.11444404E+002
 -0.32074043E+000
  0.98835952E+001
 -0.12734296E+002
 -0.32256505E+001
 -0.70919756E+001
  0.13277161E+001
 -0.43707978E+001
  0.61133605E+000
 -0.56838027E+001
 -0.25702784E+000
 -0.71110926E+001
 -0.26364967E+000
 -0.64318326E+001
  0.12548201E+000
 -0.55503317E+001
  0.14788120E+000
 -0.75239556E+001
 -0.50498659E+000
 -0.78048641E+001
 -0.39831881E-001
  0.20787311E+001
 -0.31878192E+001
 -0.37831218E-001
 -0.18745597E+001
  0.14456477E-001
 -0.12697514E+001
  0.65277625E-002
 -0.15248765E+001
 -0.19027177E-002
 -0.17864326E+001
 -0.20935815E-002
 -0.16619089E+001
  0.95830135E-003
 -0.15148379E+001
  0.81028700E-003
 -0.20138719E+001
 -0.59526030E-002
 -0.20534908E+001
 -0.21301071E-003
  0.25240302E-001
 -0.37831218E-001
 -0.00000000E+000
 -0.00000000E+000
 -0.23374740E-001
 -0.00000000E+000
 -0.00000000E+000
 -0.16846978E-001
 -0.00000000E+000
 -0.00000000E+000
 -0.18749696E-001
 -0.00000000E+000
 -0.00000000E+000
 -0.20843277E-001
 -0.00000000E+000
 -0.00000000E+000
 -0.19884976E-001
 -0.00000000E+000
 -0.00000000E+000
 -0.19074689E-001
 -0.00000000E+000
 -0.00000000E+000
 -0.25027292E-001
 -0.00000000E+000
 -0.00000000E+000
 -0.25240302E-001
 -0.00000000E+000
 -0.00000000E+000
  0.00000000E+000
  0.54305895E+002
 -0.54305895E+002
  0.10120549E+003
 -0.46899599E+002
  0.74047015E+002
  0.27158479E+002
  0.87386035E+002
 -0.13339020E+002
  0.10216188E+003
 -0.14775849E+002
  0.10080820E+003
  0.13536844E+001
  0.91425737E+002
  0.93824631E+001
  0.10610670E+003
 -0.14680962E+002
  0.30638356E+002
  0.75468343E+002
  0.30638356E+002
  0.00000000E+000
 -0.54305895E+002
  0.00000000E+000
 -0.46899599E+002
  0.00000000E+000
  0.27158479E+002
  0.00000000E+000
 -0.13339020E+002
  0.00000000E+000
 -0.14775849E+002
  0.00000000E+000
  0.13536844E+001
  0.00000000E+000
  0.93824631E+001
  0.00000000E+000
 -0.14680962E+002
  0.00000000E+000
  0.75468343E+002
  0.30638356E+002
 -0.11812572E+001
 -0.53124638E+002
 -0.16599276E+001
 -0.46420929E+002
 -0.15436056E+001
  0.27042157E+002
 -0.14452529E+001
 -0.13437372E+002
 -0.11433120E+001
 -0.15077790E+002
 -0.13733006E+001
  0.15836730E+001
 -0.15565744E+001
  0.95657370E+001
 -0.17137334E+001
 -0.14523803E+002
 -0.62821137E+000
  0.74382821E+002
  0.30010144E+002
 -0.14771720E+001
 -0.51647466E+002
 -0.18073547E+001
 -0.46090746E+002
 -0.20989389E+001
  0.27333741E+002
 -0.15466766E+001
 -0.13989635E+002
 -0.88625950E+000
 -0.15738207E+002
 -0.17799275E+001
  0.24773410E+001
 -0.19260392E+001
  0.97118486E+001
 -0.15893747E+001
 -0.14860467E+002
 -0.60316145E+000
  0.73396608E+002
  0.29406983E+002
 -0.15138546E+001
 -0.50133611E+002
 -0.19359266E+001
 -0.45668674E+002
 -0.20075771E+001
  0.27405391E+002
 -0.16190547E+001
 -0.14378157E+002
 -0.11653775E+001
 -0.16191885E+002
 -0.20317160E+001
  0.33436796E+001
 -0.20053873E+001
  0.96855198E+001
 -0.16678422E+001
 -0.15198012E+002
 -0.64603767E+000
  0.72374803E+002
  0.28760945E+002
 -0.30068415E+001
 -0.47126770E+002
 -0.47207272E+001
 -0.43954788E+002
 -0.37978442E+001
  0.26482508E+002
 -0.40482626E+001
 -0.14127739E+002
 -0.43459059E+001
 -0.15894241E+002
 -0.49767692E+001
  0.39745430E+001
 -0.44853409E+001
  0.91940915E+001
 -0.45649217E+001
 -0.15118432E+002
 -0.14880132E+001
  0.69297894E+002
  0.27272932E+002
 -0.68188349E+001
 -0.40307935E+002
 -0.12197779E+002
 -0.38575845E+002
 -0.88416361E+001
  0.23126366E+002
 -0.10544737E+002
 -0.12424638E+002
 -0.12610496E+002
 -0.13828482E+002
 -0.12536655E+002
  0.39007012E+001
 -0.11121388E+002
  0.77788247E+001
 -0.12527415E+002
 -0.13712404E+002
 -0.37148458E+001
  0.60485325E+002
  0.23558086E+002
 -0.91277294E+001
 -0.31180205E+002
 -0.17022088E+002
 -0.30681486E+002
 -0.12027814E+002
  0.18132092E+002
 -0.14779134E+002
 -0.96733181E+001
 -0.17931352E+002
 -0.10676264E+002
 -0.17347197E+002
  0.33165460E+001
 -0.15364989E+002
  0.57966173E+001
 -0.17791989E+002
 -0.11285405E+002
 -0.51326887E+001
  0.47826025E+002
  0.18425397E+002
 -0.94285308E+001
 -0.21751674E+002
 -0.18113224E+002
 -0.21996792E+002
 -0.12637587E+002
  0.12656455E+002
 -0.15700499E+002
 -0.66104064E+001
 -0.19124492E+002
 -0.72522709E+001
 -0.18240085E+002
  0.24321392E+001
 -0.16208555E+002
  0.37650876E+001
 -0.19134557E+002
 -0.83594026E+001
 -0.54301888E+001
  0.34121657E+002
  0.12995209E+002
 -0.88111280E+001
 -0.12940546E+002
 -0.17364621E+002
 -0.13443300E+002
 -0.12134860E+002
  0.74266936E+001
 -0.15020160E+002
 -0.37251056E+001
 -0.18202912E+002
 -0.40695191E+001
 -0.17222675E+002
  0.14519017E+001
 -0.15451635E+002
  0.19940483E+001
 -0.18533877E+002
 -0.52771613E+001
 -0.51786026E+001
  0.20766383E+002
  0.78166061E+001
 -0.73888130E+001
 -0.55517334E+001
 -0.14859403E+002
 -0.59727103E+001
 -0.10531808E+002
  0.30990986E+001
 -0.12815353E+002
 -0.14415602E+001
 -0.15308397E+002
 -0.15764755E+001
 -0.14442329E+002
  0.58583389E+000
 -0.13152417E+002
  0.70413672E+000
 -0.16048524E+002
 -0.23810543E+001
 -0.44178333E+001
  0.91356917E+001
  0.33987728E+001
 -0.44720828E+001
 -0.10796506E+001
 -0.92379513E+001
 -0.12068418E+001
 -0.67130300E+001
  0.57417728E+000
 -0.79160876E+001
 -0.23850265E+000
 -0.92326540E+001
 -0.25990912E+000
 -0.87457936E+001
  0.98973503E-001
 -0.81446344E+001
  0.10297754E+000
 -0.10049450E+002
 -0.47623825E+000
 -0.27284752E+001
  0.18147164E+001
  0.67029763E+000
 -0.10674822E+001
 -0.12168383E-001
 -0.22601309E+001
 -0.14193089E-001
 -0.16920466E+001
  0.60929708E-002
 -0.19286953E+001
 -0.18539712E-002
 -0.21864031E+001
 -0.22012529E-002
 -0.20882739E+001
  0.84422521E-003
 -0.19858451E+001
  0.54879671E-003
 -0.24566168E+001
 -0.54665826E-002
 -0.66265053E+000
  0.20750192E-001
  0.76470951E-002
 -0.12168383E-001
 -0.00000000E+000
 -0.00000000E+000
 -0.26361473E-001
 -0.00000000E+000
 -0.00000000E+000
 -0.20268502E-001
 -0.00000000E+000
 -0.00000000E+000
 -0.22122473E-001
 -0.00000000E+000
 -0.00000000E+000
 -0.24323726E-001
 -0.00000000E+000
 -0.00000000E+000
 -0.23479501E-001
 -0.00000000E+000
 -0.00000000E+000
 -0.22930704E-001
 -0.00000000E+000
 -0.00000000E+000
 -0.28397287E-001
 -0.00000000E+000
 -0.00000000E+000
 -0.76470951E-002
 -0.00000000E+000
 -0.00000000E+000
  0.00000000E+000
  0.34280119E+001
 -0.34280119E+001
  0.16213773E+001
  0.18066345E+001
  0.10267454E+001
  0.59463194E+000
  0.72674380E+000
  0.30000158E+000
 -0.48669452E+000
  0.12134383E+001
 -0.11733414E+001
  0.68664688E+000
 -0.19705673E+001
  0.79722590E+000
 -0.27041615E+001
  0.73359422E+000
 -0.42253303E+001
  0.15211688E+001
 -0.42253303E+001
  0.00000000E+000
 -0.34280119E+001
  0.00000000E+000
  0.18066345E+001
  0.00000000E+000
  0.59463194E+000
  0.00000000E+000
  0.30000158E+000
  0.00000000E+000
  0.12134383E+001
  0.00000000E+000
  0.68664688E+000
  0.00000000E+000
  0.79722590E+000
  0.00000000E+000
  0.73359422E+000
  0.00000000E+000
  0.15211688E+001
 -0.42253303E+001
 -0.66699139E+000
 -0.27610205E+001
  0.51030224E+000
  0.62934091E+000
 -0.90264710E-001
  0.11951989E+001
  0.84027486E-001
  0.12570938E+000
  0.44749981E-001
  0.12527158E+001
  0.71781546E-001
  0.65961531E+000
  0.10104288E+000
  0.76796456E+000
  0.12607368E+000
  0.70856343E+000
  0.16817090E+000
  0.14790716E+001
 -0.40571594E+001
 -0.56966877E+000
 -0.21913517E+001
  0.50327048E+000
 -0.44359834E+000
 -0.61338668E-001
  0.17598080E+001
  0.83262807E-002
  0.56044436E-001
  0.41607729E-001
  0.12194344E+001
  0.78239846E-001
  0.62298320E+000
  0.14002840E+000
  0.70617601E+000
  0.20317185E+000
  0.64541997E+000
  0.28336507E+000
  0.13988783E+001
 -0.37737943E+001
 -0.31499761E+000
 -0.18763541E+001
  0.41640248E+000
 -0.11749984E+001
 -0.24159889E-001
  0.22003704E+001
 -0.67634145E-002
  0.38647962E-001
  0.38102358E-001
  0.11745686E+001
  0.73807161E-001
  0.58727839E+000
  0.13787923E+000
  0.64210394E+000
  0.20458412E+000
  0.57871509E+000
  0.29232950E+000
  0.13111330E+001
 -0.34814648E+001
 -0.24670707E+000
 -0.16296470E+001
  0.17395061E+000
 -0.15956561E+001
 -0.41926253E-001
  0.24162473E+001
 -0.63482724E-001
  0.60204433E-001
  0.32319316E-001
  0.10787666E+001
  0.87746644E-001
  0.53185107E+000
  0.17351125E+000
  0.55633933E+000
  0.25865135E+000
  0.49357499E+000
  0.39225920E+000
  0.11775251E+001
 -0.30892056E+001
 -0.10570517E+001
 -0.57259528E+000
 -0.35038312E+000
 -0.23023247E+001
 -0.20086932E+000
  0.22667335E+001
 -0.18880066E+000
  0.48135774E-001
  0.17671221E-001
  0.87229468E+000
  0.12194670E+000
  0.42757559E+000
  0.24948669E+000
  0.42879934E+000
  0.36975895E+000
  0.37330273E+000
  0.58930042E+000
  0.95798365E+000
 -0.24999052E+001
 -0.99894903E+000
  0.42635375E+000
 -0.64478693E+000
 -0.26564868E+001
 -0.23838032E+000
  0.18603269E+001
 -0.21502493E+000
  0.24780382E-001
  0.31551424E-001
  0.62571833E+000
  0.15364677E+000
  0.30548024E+000
  0.28903656E+000
  0.29340954E+000
  0.41200876E+000
  0.25033053E+000
  0.66406051E+000
  0.70593190E+000
 -0.18358447E+001
 -0.26953729E+000
  0.69589104E+000
 -0.74847230E+000
 -0.21775518E+001
 -0.17123205E+000
  0.12830866E+001
 -0.17877234E+000
  0.32320669E-001
  0.49585216E-001
  0.39736077E+000
  0.15674226E+000
  0.19832320E+000
  0.27025338E+000
  0.17989843E+000
  0.37051212E+000
  0.15007179E+000
  0.60449651E+000
  0.47194751E+000
 -0.12313482E+001
  0.49003459E+000
  0.20585645E+000
 -0.72094390E+000
 -0.96657333E+000
 -0.10196453E+000
  0.66410724E+000
 -0.12279575E+000
  0.53151884E-001
  0.63897965E-001
  0.21066706E+000
  0.15246794E+000
  0.10975322E+000
  0.24066590E+000
  0.91700472E-001
  0.31558484E+000
  0.75152854E-001
  0.51858801E+000
  0.26894434E+000
 -0.71276020E+000
  0.22058251E+000
 -0.14726060E-001
 -0.50525433E+000
 -0.24073648E+000
 -0.71576945E-001
  0.23042985E+000
 -0.54497242E-001
  0.36072180E-001
  0.77342782E-001
  0.78827037E-001
  0.14351446E+000
  0.43581542E-001
  0.20182208E+000
  0.33392851E-001
  0.24991818E+000
  0.27056754E-001
  0.40676106E+000
  0.11210146E+000
 -0.30599914E+000
  0.11591051E-002
 -0.15885165E-001
 -0.21969885E+000
 -0.19878529E-001
 -0.24307034E-001
  0.35038042E-001
  0.29444707E-002
  0.88206752E-002
  0.68706243E-001
  0.13065265E-001
  0.10477999E+000
  0.75077901E-002
  0.13285900E+000
  0.53138460E-002
  0.15551724E+000
  0.43985183E-002
  0.24588546E+000
  0.21733232E-001
 -0.60113674E-001
 -0.15695824E-001
 -0.18934076E-003
 -0.35522716E-001
 -0.51637527E-004
 -0.78145232E-003
  0.29677866E-003
  0.79265796E-002
  0.11264327E-003
  0.20867785E-001
  0.12405976E-003
  0.28305413E-001
  0.70162431E-004
  0.33575191E-001
  0.44067848E-004
  0.37937774E-001
  0.35934829E-004
  0.59422186E-001
  0.24882016E-003
 -0.69148868E-003
 -0.18934076E-003
 -0.00000000E+000
 -0.00000000E+000
 -0.24097829E-003
 -0.00000000E+000
 -0.00000000E+000
  0.55800373E-004
  0.00000000E+000
  0.00000000E+000
  0.16844364E-003
 -0.00000000E+000
  0.00000000E+000
  0.29250341E-003
 -0.00000000E+000
  0.00000000E+000
  0.36266584E-003
 -0.00000000E+000
  0.00000000E+000
  0.40673368E-003
 -0.00000000E+000
  0.00000000E+000
  0.44266851E-003
 -0.00000000E+000
  0.00000000E+000
  0.69148868E-003
 -0.00000000E+000
  0.00000000E+000
 -0.00000000E+000
 -0.32036297E+001
  0.32036297E+001
  0.10248873E+001
 -0.42285170E+001
 -0.52246372E+000
  0.15473510E+001
 -0.67110454E+000