# vtk DataFile Version 2.0
BldPointCP.BldA
ASCII
 
DATASET POLYDATA
POINTS 9 double
 -0.10617855E+002 -0.36355840E+001  0.10656223E+003
 -0.26513303E+002 -0.90669070E+001  0.95015845E+002
 -0.38987780E+002 -0.13427515E+002  0.82746641E+002
 -0.47291466E+002 -0.16392554E+002  0.70381710E+002
 -0.49980549E+002 -0.17372513E+002  0.58373876E+002
 -0.47289195E+002 -0.16419810E+002  0.46373502E+002
 -0.38970654E+002 -0.13430593E+002  0.34005883E+002
 -0.26575177E+002 -0.90635479E+001  0.21636095E+002
 -0.10853597E+002 -0.36850218E+001  0.98275554E+001
  
POINT_DATA 9
SCALARS Gamma_LL double
LOOKUP_TABLE default
 -0.39498904E+001
 -0.15630682E+003
 -0.14183626E+003
 -0.10704238E+003
 -0.86224206E+002
 -0.77282006E+002
 -0.93268918E+002
 -0.13495129E+003
 -0.56505818E+002
VECTORS Vind_CP double
  0.10526474E+000 -0.28261667E+000  0.93979440E-001
 -0.65876346E+000  0.15123716E-001  0.62820631E+000
 -0.97467635E+000 -0.49201643E-001  0.68398005E+000
 -0.10610512E+001 -0.11466391E+000  0.37067964E+000
 -0.88596469E+000 -0.18262387E+000  0.38701701E-001
 -0.81858864E+000 -0.92477817E-001 -0.20375872E+000
 -0.72778774E+000 -0.44180437E-001 -0.45710224E+000
 -0.63486867E+000 -0.34846493E-001 -0.58743294E+000
 -0.21590492E+000  0.20045755E-003 -0.79611713E-001
VECTORS Vtot_CP double
  0.81152661E+001  0.19082242E+002 -0.15210876E+001
 -0.11814288E+001  0.49181945E+002 -0.33587647E+001
 -0.98270270E+001  0.72873588E+002 -0.38319348E+001
 -0.17319535E+002  0.88756290E+002 -0.32186071E+001
 -0.20021250E+002  0.93969536E+002 -0.30571031E+001
 -0.17604906E+002  0.88644857E+002 -0.29961456E+001
 -0.10328304E+002  0.72365594E+002 -0.22406250E+001
 -0.61933328E+000  0.48815012E+002 -0.11328060E+001
  0.10250098E+002  0.19815942E+002 -0.10684475E+000
VECTORS Vstr_CP double
  0.91899986E+001 -0.19364859E+002  0.16150670E+001
  0.17722665E+002 -0.49166821E+002  0.39869710E+001
  0.26052351E+002 -0.72922790E+002  0.45159148E+001
  0.33458483E+002 -0.88870954E+002  0.35892868E+001
  0.36335285E+002 -0.94152160E+002  0.30958048E+001
  0.33986318E+002 -0.88737335E+002  0.27923869E+001
  0.26800516E+002 -0.72409774E+002  0.17835227E+001
  0.17184465E+002 -0.48849858E+002  0.54537310E+000
  0.67339971E+001 -0.19815742E+002  0.27233035E-001
VECTORS Vwnd_CP double
  0.17200000E+002  0.00000000E+000  0.00000000E+000
  0.17200000E+002  0.00000000E+000  0.00000000E+000
  0.17200000E+002  0.00000000E+000  0.00000000E+000
  0.17200000E+002  0.00000000E+000  0.00000000E+000
  0.17200000E+002  0.00000000E+000  0.00000000E+000
  0.17200000E+002  0.00000000E+000  0.00000000E+000
  0.17200000E+002  0.00000000E+000  0.00000000E+000
  0.17200000E+002  0.00000000E+000  0.00000000E+000
  0.17200000E+002  0.00000000E+000  0.00000000E+000
VECTORS Tangent double
 -0.90167950E+000  0.43217529E+000 -0.14092632E-001
 -0.32769267E+000  0.94478373E+000 -0.10982451E-002
 -0.32309085E+000  0.94636172E+000 -0.34348468E-002
 -0.30636615E+000  0.95189675E+000 -0.56888484E-002
 -0.29957026E+000  0.95407423E+000  0.12366204E-003
 -0.30148339E+000  0.95346642E+000  0.30890731E-002
 -0.30721208E+000  0.95163886E+000  0.20539812E-002
 -0.31290841E+000  0.94978221E+000  0.14421434E-002
 -0.31634284E+000  0.94864442E+000  0.98670007E-003
VECTORS Normal double
 -0.28057015E+000 -0.55995364E+000  0.77957188E+000
 -0.60240951E+000 -0.20804642E+000  0.77059683E+000
 -0.68399737E+000 -0.23100742E+000  0.69194160E+000
 -0.85741773E+000 -0.27335246E+000  0.43601981E+000
 -0.95407309E+000 -0.29957010E+000  0.15159156E-002
 -0.85756746E+000 -0.26974146E+000 -0.43796987E+000
 -0.68773568E+000 -0.22052490E+000 -0.69165627E+000
 -0.61535022E+000 -0.20157177E+000 -0.76204523E+000
 -0.48573359E+000 -0.16108315E+000 -0.85913625E+000
VECTORS Orth double
 -0.32902048E+000 -0.70687795E+000 -0.62615420E+000
 -0.72781886E+000 -0.25318053E+000 -0.63732199E+000
 -0.65403356E+000 -0.22590942E+000 -0.72194531E+000
 -0.41349078E+000 -0.13845943E+000 -0.89991909E+000
 -0.14833415E-002 -0.33614061E-003 -0.99999884E+000
  0.41675631E+000  0.13468973E+000 -0.89898435E+000
  0.65775403E+000  0.21389776E+000 -0.72222391E+000
  0.72348631E+000  0.23933778E+000 -0.64752219E+000
  0.81485587E+000  0.27226087E+000 -0.51174596E+000
