# vtk DataFile Version 2.0
BldPointCP.BldA
ASCII
 
DATASET POLYDATA
POINTS 9 double
 -0.10523514E+002 -0.38284991E+001  0.10657931E+003
 -0.26331521E+002 -0.95568122E+001  0.95056689E+002
 -0.38720772E+002 -0.14155130E+002  0.82790954E+002
 -0.46949201E+002 -0.17278896E+002  0.70417111E+002
 -0.49609714E+002 -0.18310482E+002  0.58405383E+002
 -0.46941087E+002 -0.17304955E+002  0.46402854E+002
 -0.38697233E+002 -0.14152722E+002  0.34024960E+002
 -0.26400972E+002 -0.95500095E+001  0.21641447E+002
 -0.10784386E+002 -0.38827421E+001  0.98279076E+001
  
POINT_DATA 9
SCALARS Gamma_LL double
LOOKUP_TABLE default
 -0.38669417E+001
 -0.15530628E+003
 -0.14115103E+003
 -0.10505836E+003
 -0.82565390E+002
 -0.72960950E+002
 -0.89076313E+002
 -0.13252369E+003
 -0.54528913E+002
VECTORS Vind_CP double
  0.10103589E+000 -0.28140814E+000  0.85931048E-001
 -0.68650589E+000  0.11925815E-001  0.64998852E+000
 -0.10158726E+001 -0.54026976E-001  0.71494635E+000
 -0.10263586E+001 -0.10909525E+000  0.37383621E+000
 -0.79131760E+000 -0.17035272E+000  0.44685269E-001
 -0.75657706E+000 -0.78535495E-001 -0.18800917E+000
 -0.74173155E+000 -0.44281221E-001 -0.46408925E+000
 -0.65479831E+000 -0.38980783E-001 -0.60399248E+000
 -0.22294092E+000  0.20395431E-002 -0.82043845E-001
VECTORS Vtot_CP double
  0.76614432E+001  0.18950302E+002 -0.15017974E+001
 -0.21786453E+001  0.48902555E+002 -0.33350281E+001
 -0.11199579E+002  0.72448844E+002 -0.39045002E+001
 -0.18930430E+002  0.88162305E+002 -0.33566132E+001
 -0.21760854E+002  0.93271833E+002 -0.31715275E+001
 -0.19315273E+002  0.87960938E+002 -0.31053691E+001
 -0.11784420E+002  0.71807196E+002 -0.23602045E+001
 -0.15773698E+001  0.48466279E+002 -0.12000686E+001
  0.98802287E+001  0.19689350E+002 -0.11276195E+000
VECTORS Vstr_CP double
  0.96395927E+001 -0.19231710E+002  0.15877285E+001
  0.18692139E+002 -0.48890630E+002  0.39850166E+001
  0.27383706E+002 -0.72502870E+002  0.46194466E+001
  0.35104072E+002 -0.88271401E+002  0.37304494E+001
  0.38169537E+002 -0.93442186E+002  0.32162127E+001
  0.35758696E+002 -0.88039474E+002  0.29173599E+001
  0.28242689E+002 -0.71851478E+002  0.18961152E+001
  0.18122572E+002 -0.48505260E+002  0.59607612E+000
  0.70968304E+001 -0.19687311E+002  0.30718103E-001
VECTORS Vwnd_CP double
  0.17200000E+002  0.00000000E+000  0.00000000E+000
  0.17200000E+002  0.00000000E+000  0.00000000E+000
  0.17200000E+002  0.00000000E+000  0.00000000E+000
  0.17200000E+002  0.00000000E+000  0.00000000E+000
  0.17200000E+002  0.00000000E+000  0.00000000E+000
  0.17200000E+002  0.00000000E+000  0.00000000E+000
  0.17200000E+002  0.00000000E+000  0.00000000E+000
  0.17200000E+002  0.00000000E+000  0.00000000E+000
  0.17200000E+002  0.00000000E+000  0.00000000E+000
VECTORS Tangent double
 -0.90936933E+000  0.41570735E+000 -0.15324188E-001
 -0.34518303E+000  0.93853445E+000 -0.13262233E-002
 -0.34008947E+000  0.94038464E+000 -0.39852487E-002
 -0.32178802E+000  0.94679001E+000 -0.64136438E-002
 -0.31439697E+000  0.94929159E+000  0.16910086E-003
 -0.31676399E+000  0.94849758E+000  0.35930743E-002
 -0.32325547E+000  0.94630880E+000  0.23575185E-002
 -0.32948919E+000  0.94415803E+000  0.15781561E-002
 -0.33315583E+000  0.94287115E+000  0.10886362E-002
VECTORS Normal double
 -0.27043743E+000 -0.56279422E+000  0.78110579E+000
 -0.59752181E+000 -0.21867206E+000  0.77145979E+000
 -0.68055857E+000 -0.24319450E+000  0.69115589E+000
 -0.85353152E+000 -0.28714680E+000  0.43477655E+000
 -0.94929059E+000 -0.31439688E+000  0.14072212E-002
 -0.85348117E+000 -0.28337520E+000 -0.43734242E+000
 -0.68501758E+000 -0.23227914E+000 -0.69050512E+000
 -0.61217141E+000 -0.21236045E+000 -0.76167526E+000
 -0.48284439E+000 -0.16961719E+000 -0.85912241E+000
VECTORS Orth double
 -0.31608705E+000 -0.71445788E+000 -0.62421063E+000
 -0.72375159E+000 -0.26708727E+000 -0.63627669E+000
 -0.64898320E+000 -0.23776704E+000 -0.72269471E+000
 -0.40980044E+000 -0.14538014E+000 -0.90051553E+000
 -0.13890281E-002 -0.28190023E-003 -0.99999900E+000
  0.41380004E+000  0.14160095E+000 -0.89928789E+000
  0.65288347E+000  0.22482449E+000 -0.72332367E+000
  0.71880668E+000  0.25192987E+000 -0.64795702E+000
  0.80985708E+000  0.28674728E+000 -0.51176900E+000
