# vtk DataFile Version 2.0

ASCII
 
DATASET POLYDATA
POINTS 210 double
  0.38138738E+000  0.93182340E-001  0.11318046E+003
  0.38409385E+001  0.20248544E+002  0.10074527E+003
  0.63514788E+001  0.34672054E+002  0.88696187E+002
  0.84858959E+001  0.46728445E+002  0.76568055E+002
  0.95222144E+001  0.52479947E+002  0.64212220E+002
  0.95378940E+001  0.52350290E+002  0.51946176E+002
  0.85006708E+001  0.46503352E+002  0.39638492E+002
  0.63287384E+001  0.34571027E+002  0.27387451E+002
  0.37038237E+001  0.20215776E+002  0.15262303E+002
  0.15468668E-003  0.24858540E-004  0.30001972E+001
  0.37982613E+001 -0.28349755E+001  0.11320985E+003
  0.81591291E+001  0.19342470E+002  0.10073061E+003
  0.93971026E+001  0.34111276E+002  0.88678823E+002
  0.10907134E+002  0.46319940E+002  0.76560503E+002
  0.11740734E+002  0.52071666E+002  0.64211333E+002
  0.11796478E+002  0.51917715E+002  0.51945377E+002
  0.11061496E+002  0.46052033E+002  0.39637013E+002
  0.97003258E+001  0.33965007E+002  0.27387415E+002
  0.81279204E+001  0.19392753E+002  0.15262876E+002
  0.44255255E+001 -0.81429758E+000  0.30547123E+001
  0.39198003E+001 -0.28992200E+001  0.11319826E+003
  0.86757658E+001  0.19186561E+002  0.10071540E+003
  0.10180732E+002  0.33933711E+002  0.88675553E+002
  0.11910993E+002  0.46115382E+002  0.76560558E+002
  0.12847538E+002  0.51849583E+002  0.64211545E+002
  0.12900080E+002  0.51693048E+002  0.51946010E+002
  0.12059963E+002  0.45842908E+002  0.39638056E+002
  0.10481224E+002  0.33781961E+002  0.27390264E+002
  0.86462824E+001  0.19239323E+002  0.15266479E+002
  0.45806983E+001 -0.89318743E+000  0.30617393E+001
  0.40066677E+001 -0.29615650E+001  0.11318039E+003
  0.91744923E+001  0.19030804E+002  0.10071102E+003
  0.10957308E+002  0.33742314E+002  0.88680342E+002
  0.12916569E+002  0.45879319E+002  0.76559342E+002
  0.13959379E+002  0.51599173E+002  0.64212334E+002
  0.14006286E+002  0.51451073E+002  0.51948105E+002
  0.13056476E+002  0.45616307E+002  0.39642342E+002
  0.11258353E+002  0.33585016E+002  0.27397016E+002
  0.91618231E+001  0.19079417E+002  0.15270661E+002
  0.47347678E+001 -0.97078174E+000  0.30649330E+001
  0.40902127E+001 -0.30266629E+001  0.11316023E+003
  0.96716103E+001  0.18869593E+002  0.10070674E+003
  0.11730318E+002  0.33537990E+002  0.88684205E+002
  0.13916464E+002  0.45625001E+002  0.76556473E+002
  0.15065576E+002  0.51329979E+002  0.64212413E+002
  0.15107037E+002  0.51189890E+002  0.51951247E+002
  0.14047912E+002  0.45372433E+002  0.39648396E+002
  0.12031427E+002  0.33375965E+002  0.27405109E+002
  0.96744033E+001  0.18913259E+002  0.15275181E+002
  0.48870875E+001 -0.10488246E+001  0.30678635E+001
  0.41736550E+001 -0.30916508E+001  0.11315680E+003
  0.10167093E+002  0.18702981E+002  0.10070317E+003
  0.12499459E+002  0.33320737E+002  0.88686829E+002
  0.14910359E+002  0.45353134E+002  0.76551894E+002
  0.16165751E+002  0.51042132E+002  0.64212287E+002
  0.16202196E+002  0.50910260E+002  0.51955010E+002
  0.15034018E+002  0.45111589E+002  0.39656365E+002
  0.12800123E+002  0.33154503E+002  0.27415089E+002
  0.10183968E+002  0.18741070E+002  0.15279465E+002
  0.50383091E+001 -0.11259626E+001  0.30740029E+001
  0.42513271E+001 -0.31632969E+001  0.11315308E+003
  0.10660574E+002  0.18529127E+002  0.10069632E+003
  0.13264429E+002  0.33090322E+002  0.88687587E+002
  0.15897108E+002  0.45061324E+002  0.76543904E+002
  0.17259006E+002  0.50734408E+002  0.64210763E+002
  0.17291305E+002  0.50612005E+002  0.51959510E+002
  0.16014509E+002  0.44833929E+002  0.39666251E+002
  0.13564338E+002  0.32921098E+002  0.27426441E+002
  0.10690499E+002  0.18563053E+002  0.15284459E+002
  0.51883079E+001 -0.12027610E+001  0.30798941E+001
  0.43328720E+001 -0.32280784E+001  0.11314487E+003
  0.11152700E+002  0.18350769E+002  0.10069020E+003
  0.14025156E+002  0.32847651E+002  0.88687356E+002
  0.16877257E+002  0.44753578E+002  0.76534824E+002
  0.18345432E+002  0.50408979E+002  0.64209315E+002
  0.18374296E+002  0.50296024E+002  0.51964813E+002
  0.16989325E+002  0.44539923E+002  0.39677800E+002
  0.14323621E+002  0.32674677E+002  0.27440159E+002
  0.11192915E+002  0.18375932E+002  0.15293129E+002
  0.53366506E+001 -0.12798104E+001  0.30827009E+001
  0.44168004E+001 -0.32882207E+001  0.11314158E+003
  0.11644320E+002  0.18169960E+002  0.10068916E+003
  0.14780558E+002  0.32589877E+002  0.88682654E+002
  0.17850713E+002  0.44430503E+002  0.76524669E+002
  0.19424893E+002  0.50066196E+002  0.64207745E+002
  0.19450845E+002  0.49961295E+002  0.51969910E+002
  0.17957775E+002  0.44228360E+002  0.39691978E+002
  0.15078046E+002  0.32416678E+002  0.27455005E+002
  0.11693245E+002  0.18186919E+002  0.15297940E+002
  0.54836857E+001 -0.13563751E+001  0.30848960E+001
  0.45051373E+001 -0.33416779E+001  0.11314600E+003
  0.12134379E+002  0.17983778E+002  0.10068949E+003
  0.15532005E+002  0.32322885E+002  0.88679771E+002
  0.18816540E+002  0.44091398E+002  0.76513321E+002
  0.20496273E+002  0.49704315E+002  0.64204915E+002
  0.20520109E+002  0.49608372E+002  0.51976871E+002
  0.18920407E+002  0.43902854E+002  0.39705169E+002
  0.15827672E+002  0.32147810E+002  0.27470483E+002
  0.12190509E+002  0.17992856E+002  0.15302119E+002
  0.56298357E+001 -0.14316621E+001  0.30869275E+001
  0.45894879E+001 -0.33994244E+001  0.11314056E+003
  0.12623023E+002  0.17792901E+002  0.10069646E+003
  0.16279760E+002  0.32047640E+002  0.88679988E+002
  0.19775163E+002  0.43738235E+002  0.76501615E+002
  0.21562153E+002  0.49332080E+002  0.64203061E+002
  0.21585283E+002  0.49246914E+002  0.51981744E+002
  0.19877540E+002  0.43564368E+002  0.39717524E+002
  0.16573563E+002  0.31871805E+002  0.27481731E+002
  0.12684751E+002  0.17794008E+002  0.15305458E+002
  0.57733599E+001 -0.15089611E+001  0.30875866E+001
  0.46748095E+001 -0.34548445E+001  0.11312741E+003
  0.13109839E+002  0.17596826E+002  0.10070813E+003
  0.17022682E+002  0.31761749E+002  0.88680091E+002
  0.20727309E+002  0.43373920E+002  0.76491125E+002
  0.22621919E+002  0.48948620E+002  0.64201572E+002
  0.22645017E+002  0.48873262E+002  0.51985551E+002
  0.20830197E+002  0.43216284E+002  0.39726622E+002
  0.17315063E+002  0.31586874E+002  0.27490817E+002
  0.13175963E+002  0.17590584E+002  0.15307812E+002
  0.59163593E+001 -0.15843278E+001  0.30884403E+001
  0.47613988E+001 -0.35067570E+001  0.11311415E+003
  0.13594623E+002  0.17396053E+002  0.10073011E+003
  0.17761210E+002  0.31466876E+002  0.88681437E+002
  0.21672838E+002  0.42998688E+002  0.76481785E+002
  0.23677109E+002  0.48558383E+002  0.64200991E+002
  0.23700317E+002  0.48490190E+002  0.51988223E+002
  0.21777857E+002  0.42858005E+002  0.39733069E+002
  0.18052234E+002  0.31293664E+002  0.27497038E+002
  0.13664291E+002  0.17382767E+002  0.15307889E+002
  0.60583940E+001 -0.16587976E+001  0.30899370E+001
  0.48518351E+001 -0.35546725E+001  0.11311193E+003
  0.14077165E+002  0.17190368E+002  0.10075998E+003
  0.18494769E+002  0.31162361E+002  0.88683119E+002
  0.22611712E+002  0.42612940E+002  0.76473385E+002
  0.24727956E+002  0.48162125E+002  0.64201855E+002
  0.24753488E+002  0.48105252E+002  0.51988145E+002
  0.22719615E+002  0.42487007E+002  0.39738438E+002
  0.18784547E+002  0.30991287E+002  0.27501723E+002
  0.14149554E+002  0.17170641E+002  0.15305640E+002
  0.61999866E+001 -0.17316112E+001  0.30864037E+001
  0.49413094E+001 -0.36040285E+001  0.11310605E+003
  0.14557052E+002  0.16979320E+002  0.10079479E+003
  0.19223521E+002  0.30849523E+002  0.88685846E+002
  0.23544459E+002  0.42218328E+002  0.76467434E+002
  0.25773954E+002  0.47758458E+002  0.64203760E+002
  0.25802001E+002  0.47711263E+002  0.51986287E+002
  0.23656890E+002  0.42108708E+002  0.39739309E+002
  0.19512159E+002  0.30680760E+002  0.27503358E+002
  0.14631598E+002  0.16954155E+002  0.15300256E+002
  0.63403438E+001 -0.18042276E+001  0.30826045E+001
  0.50290885E+001 -0.36557872E+001  0.11309057E+003
  0.15034422E+002  0.16763772E+002  0.10083571E+003
  0.19947169E+002  0.30528550E+002  0.88690001E+002
  0.24471231E+002  0.41816076E+002  0.76464609E+002
  0.26815812E+002  0.47350456E+002  0.64208005E+002
  0.26847260E+002  0.47313463E+002  0.51980575E+002
  0.24588929E+002  0.41721769E+002  0.39735237E+002
  0.20235378E+002  0.30363437E+002  0.27500764E+002
  0.15110252E+002  0.16733088E+002  0.15292265E+002
  0.64812985E+001 -0.18731161E+001  0.30794742E+001
  0.51223370E+001 -0.37003194E+001  0.11308160E+003
  0.15508478E+002  0.16541511E+002  0.10087332E+003
  0.20665662E+002  0.30200370E+002  0.88695766E+002
  0.25392047E+002  0.41406320E+002  0.76465247E+002
  0.27849958E+002  0.46928535E+002  0.64213242E+002
  0.27884774E+002  0.46900167E+002  0.51973621E+002
  0.25514809E+002  0.41324930E+002  0.39728089E+002
  0.20953243E+002  0.30037504E+002  0.27495930E+002
  0.15585234E+002  0.16507027E+002  0.15281679E+002
  0.66186767E+001 -0.19461676E+001  0.30747539E+001
  0.52157568E+001 -0.37466283E+001  0.11306276E+003
  0.15979147E+002  0.16313012E+002  0.10090714E+003
  0.21378234E+002  0.29864161E+002  0.88700469E+002
  0.26305559E+002  0.40985895E+002  0.76467318E+002
  0.28873606E+002  0.46486462E+002  0.64217668E+002
  0.28911259E+002  0.46464554E+002  0.51967321E+002
  0.26432093E+002  0.40913266E+002  0.39720525E+002
  0.21665211E+002  0.29702483E+002  0.27489926E+002
  0.16056174E+002  0.16275547E+002  0.15269918E+002
  0.67549612E+001 -0.20184336E+001  0.30704740E+001
  0.53153678E+001 -0.37826927E+001  0.11304955E+003
  0.16445925E+002  0.16077950E+002  0.10093524E+003
  0.22084037E+002  0.29519101E+002  0.88703515E+002
  0.27211000E+002  0.40552871E+002  0.76469751E+002
  0.29884571E+002  0.46020241E+002  0.64220542E+002
  0.29923893E+002  0.46001753E+002  0.51962629E+002
  0.27339336E+002  0.40484421E+002  0.39714203E+002
  0.22369807E+002  0.29355902E+002  0.27486032E+002
  0.16521300E+002  0.16035381E+002  0.15261364E+002
  0.68898720E+001 -0.20901571E+001  0.30659219E+001
  0.54121690E+001 -0.38278537E+001  0.11303487E+003
  0.16908246E+002  0.15837022E+002  0.10095300E+003
  0.22784336E+002  0.29168169E+002  0.88707401E+002
  0.28108455E+002  0.40107131E+002  0.76471850E+002
  0.30882689E+002  0.45530801E+002  0.64221753E+002
  0.30921847E+002  0.45511606E+002  0.51960203E+002
  0.28236764E+002  0.40039310E+002  0.39709643E+002
  0.23068497E+002  0.29001904E+002  0.27480626E+002
  0.16982546E+002  0.15791769E+002  0.15250607E+002
  0.70232202E+001 -0.21617403E+001  0.30632482E+001
  0.55145556E+001 -0.38657007E+001  0.11303033E+003
  0.17366002E+002  0.15590949E+002  0.10096343E+003
  0.23479837E+002  0.28811678E+002  0.88712312E+002
  0.28999253E+002  0.39651608E+002  0.76473854E+002
  0.31869690E+002  0.45022418E+002  0.64221847E+002
  0.31909141E+002  0.45003849E+002  0.51959675E+002
  0.29126790E+002  0.39582808E+002  0.39706301E+002
  0.23761897E+002  0.28641729E+002  0.27473950E+002
  0.17438909E+002  0.15542740E+002  0.15242495E+002
  0.71557855E+001 -0.22318927E+001  0.30618435E+001
  
POLYGONS 180 900
      4      0      1     11     10
      4      1      2     12     11
      4      2      3     13     12
      4      3      4     14     13
      4      4      5     15     14
      4      5      6     16     15
      4      6      7     17     16
      4      7      8     18     17
      4      8      9     19     18
      4     10     11     21     20
      4     11     12     22     21
      4     12     13     23     22
      4     13     14     24     23
      4     14     15     25     24
      4     15     16     26     25
      4     16     17     27     26
      4     17     18     28     27
      4     18     19     29     28
      4     20     21     31     30
      4     21     22     32     31
      4     22     23     33     32
      4     23     24     34     33
      4     24     25     35     34
      4     25     26     36     35
      4     26     27     37     36
      4     27     28     38     37
      4     28     29     39     38
      4     30     31     41     40
      4     31     32     42     41
      4     32     33     43     42
      4     33     34     44     43
      4     34     35     45     44
      4     35     36     46     45
      4     36     37     47     46
      4     37     38     48     47
      4     38     39     49     48
      4     40     41     51     50
      4     41     42     52     51
      4     42     43     53     52
      4     43     44     54     53
      4     44     45     55     54
      4     45     46     56     55
      4     46     47     57     56
      4     47     48     58     57
      4     48     49     59     58
      4     50     51     61     60
      4     51     52     62     61
      4     52     53     63     62
      4     53     54     64     63
      4     54     55     65     64
      4     55     56     66     65
      4     56     57     67     66
      4     57     58     68     67
      4     58     59     69     68
      4     60     61     71     70
      4     61     62     72     71
      4     62     63     73     72
      4     63     64     74     73
      4     64     65     75     74
      4     65     66     76     75
      4     66     67     77     76
      4     67     68     78     77
      4     68     69     79     78
      4     70     71     81     80
      4     71     72     82     81
      4     72     73     83     82
      4     73     74     84     83
      4     74     75     85     84
      4     75     76     86     85
      4     76     77     87     86
      4     77     78     88     87
      4     78     79     89     88
      4     80     81     91     90
      4     81     82     92     91
      4     82     83     93     92
      4     83     84     94     93
      4     84     85     95     94
      4     85     86     96     95
      4     86     87     97     96
      4     87     88     98     97
      4     88     89     99     98
      4     90     91    101    100
      4     91     92    102    101
      4     92     93    103    102
      4     93     94    104    103
      4     94     95    105    104
      4     95     96    106    105
      4     96     97    107    106
      4     97     98    108    107
      4     98     99    109    108
      4    100    101    111    110
      4    101    102    112    111
      4    102    103    113    112
      4    103    104    114    113
      4    104    105    115    114
      4    105    106    116    115
      4    106    107    117    116
      4    107    108    118    117
      4    108    109    119    118
      4    110    111    121    120
      4    111    112    122    121
      4    112    113    123    122
      4    113    114    124    123
      4    114    115    125    124
      4    115    116    126    125
      4    116    117    127    126
      4    117    118    128    127
      4    118    119    129    128
      4    120    121    131    130
      4    121    122    132    131
      4    122    123    133    132
      4    123    124    134    133
      4    124    125    135    134
      4    125    126    136    135
      4    126    127    137    136
      4    127    128    138    137
      4    128    129    139    138
      4    130    131    141    140
      4    131    132    142    141
      4    132    133    143    142
      4    133    134    144    143
      4    134    135    145    144
      4    135    136    146    145
      4    136    137    147    146
      4    137    138    148    147
      4    138    139    149    148
      4    140    141    151    150
      4    141    142    152    151
      4    142    143    153    152
      4    143    144    154    153
      4    144    145    155    154
      4    145    146    156    155
      4    146    147    157    156
      4    147    148    158    157
      4    148    149    159    158
      4    150    151    161    160
      4    151    152    162    161
      4    152    153    163    162
      4    153    154    164    163
      4    154    155    165    164
      4    155    156    166    165
      4    156    157    167    166
      4    157    158    168    167
      4    158    159    169    168
      4    160    161    171    170
      4    161    162    172    171
      4    162    163    173    172
      4    163    164    174    173
      4    164    165    175    174
      4    165    166    176    175
      4    166    167    177    176
      4    167    168    178    177
      4    168    169    179    178
      4    170    171    181    180
      4    171    172    182    181
      4    172    173    183    182
      4    173    174    184    183
      4    174    175    185    184
      4    175    176    186    185
      4    176    177    187    186
      4    177    178    188    187
      4    178    179    189    188
      4    180    181    191    190
      4    181    182    192    191
      4    182    183    193    192
      4    183    184    194    193
      4    184    185    195    194
      4    185    186    196    195
      4    186    187    197    196
      4    187    188    198    197
      4    188    189    199    198
      4    190    191    201    200
      4    191    192    202    201
      4    192    193    203    202
      4    193    194    204    203
      4    194    195    205    204
      4    195    196    206    205
      4    196    197    207    206
      4    197    198    208    207
      4    198    199    209    208
  
CELL_DATA 180
SCALARS Gamma double
LOOKUP_TABLE default
  0.10291981E+003
  0.43935981E+002
  0.17207899E+002
  0.13413874E+002
  0.30738966E+002
  0.26389535E+002
  0.18298592E+002
  0.25846231E+002
  0.31963509E+002
  0.10291981E+003
  0.43935981E+002
  0.17207899E+002
  0.13413874E+002
  0.30738966E+002
  0.26389535E+002
  0.18298592E+002
  0.25846231E+002
  0.31963509E+002
  0.10462946E+003
  0.47042683E+002
  0.19700607E+002
  0.15750973E+002
  0.33020767E+002
  0.28730511E+002
  0.20955286E+002
  0.29019679E+002
  0.34819224E+002
  0.10633772E+003
  0.48251395E+002
  0.19389485E+002
  0.17378730E+002
  0.35923587E+002
  0.31130226E+002
  0.22339111E+002
  0.31191795E+002
  0.37451714E+002
  0.10803232E+003
  0.49368156E+002
  0.19173718E+002
  0.19184389E+002
  0.38855487E+002
  0.33590084E+002
  0.23805856E+002
  0.33415121E+002
  0.40088579E+002
  0.10970619E+003
  0.50424130E+002
  0.19104853E+002
  0.21197282E+002
  0.41840007E+002
  0.36112826E+002
  0.25374825E+002
  0.35722205E+002
  0.42739685E+002
  0.11112772E+003
  0.51398107E+002
  0.19179802E+002
  0.23452183E+002
  0.44919203E+002
  0.38693043E+002
  0.27024695E+002
  0.38104920E+002
  0.45401503E+002
  0.11244064E+003
  0.52404588E+002
  0.19556516E+002
  0.25948359E+002
  0.48011656E+002
  0.41314340E+002
  0.28826573E+002
  0.40632908E+002
  0.48082909E+002
  0.11372478E+003
  0.53426427E+002
  0.20225088E+002
  0.28672640E+002
  0.51117529E+002
  0.43943908E+002
  0.30757073E+002
  0.43294595E+002
  0.50780150E+002
  0.11487674E+003
  0.54509432E+002
  0.21238922E+002
  0.31578756E+002
  0.54134381E+002
  0.46517198E+002
  0.32831361E+002
  0.46126820E+002
  0.53508508E+002
  0.11550391E+003
  0.55599070E+002
  0.22622397E+002
  0.34596947E+002
  0.56909105E+002
  0.48939084E+002
  0.35019932E+002
  0.49063237E+002
  0.56174020E+002
  0.11260791E+003
  0.55118972E+002
  0.23710119E+002
  0.36574781E+002
  0.57627379E+002
  0.49673087E+002
  0.36249274E+002
  0.50634756E+002
  0.57102687E+002
  0.10000560E+003
  0.49889924E+002
  0.22951288E+002
  0.35053800E+002
  0.52787068E+002
  0.45703218E+002
  0.34215870E+002
  0.47591404E+002
  0.52785673E+002
  0.80240252E+002
  0.41003710E+002
  0.20324579E+002
  0.30230284E+002
  0.43423174E+002
  0.37859980E+002
  0.29248693E+002
  0.40490246E+002
  0.44129981E+002
  0.57999852E+002
  0.30493256E+002
  0.16374694E+002
  0.23384678E+002
  0.31974723E+002
  0.28167340E+002
  0.22576558E+002
  0.31041105E+002
  0.33225043E+002
  0.35761694E+002
  0.19421458E+002
  0.11297451E+002
  0.15331624E+002
  0.19929530E+002
  0.17800053E+002
  0.14857698E+002
  0.20276385E+002
  0.21328000E+002
  0.15959946E+002
  0.89899100E+001
  0.56573961E+001
  0.72274289E+001
  0.89183685E+001
  0.81136264E+001
  0.70842443E+001
  0.95628548E+001
  0.98835952E+001
  0.32256505E+001
  0.18979344E+001
  0.12865983E+001
  0.15436262E+001
  0.18072758E+001
  0.16817938E+001
  0.15339126E+001
  0.20388992E+001
  0.20787311E+001
  0.37831218E-001
  0.23374740E-001
  0.16846978E-001
  0.18749696E-001
  0.20843277E-001
  0.19884976E-001
  0.19074689E-001
  0.25027292E-001
  0.25240302E-001
  0.00000000E+000
  0.00000000E+000
  0.00000000E+000
  0.00000000E+000
  0.00000000E+000
  0.00000000E+000
  0.00000000E+000
  0.00000000E+000
  0.00000000E+000
POINT_DATA 210
VECTORS Uconv double
  0.00000000E+000  0.00000000E+000  0.00000000E+000
  0.00000000E+000  0.00000000E+000  0.00000000E+000
  0.00000000E+000  0.00000000E+000  0.00000000E+000
  0.00000000E+000  0.00000000E+000  0.00000000E+000
  0.00000000E+000  0.00000000E+000  0.00000000E+000
  0.00000000E+000  0.00000000E+000  0.00000000E+000
  0.00000000E+000  0.00000000E+000  0.00000000E+000
  0.00000000E+000  0.00000000E+000  0.00000000E+000
  0.00000000E+000  0.00000000E+000  0.00000000E+000
  0.00000000E+000  0.00000000E+000  0.00000000E+000
  0.00000000E+000  0.00000000E+000  0.00000000E+000
  0.00000000E+000  0.00000000E+000  0.00000000E+000
  0.00000000E+000  0.00000000E+000  0.00000000E+000
  0.00000000E+000  0.00000000E+000  0.00000000E+000
  0.00000000E+000  0.00000000E+000  0.00000000E+000
  0.00000000E+000  0.00000000E+000  0.00000000E+000
  0.00000000E+000  0.00000000E+000  0.00000000E+000
  0.00000000E+000  0.00000000E+000  0.00000000E+000
  0.00000000E+000  0.00000000E+000  0.00000000E+000
  0.00000000E+000  0.00000000E+000  0.00000000E+000
  0.17321393E+002  0.37100661E+000 -0.11589910E+001
  0.16958224E+002 -0.58262626E+000 -0.15216947E+001
  0.17078613E+002 -0.27625944E+000 -0.32530344E+000
  0.17138005E+002 -0.54797490E-001  0.87741451E-002
  0.17085165E+002 -0.21889981E+000  0.22059758E-001
  0.17042971E+002 -0.38118788E+000  0.63652119E-001
  0.17083067E+002 -0.24129766E+000  0.10313579E+000
  0.17073464E+002 -0.28154322E+000  0.28399227E+000
  0.17040083E+002 -0.38931169E+000  0.36053032E+000
  0.17055714E+002  0.68743351E-001  0.70267814E+000
  0.17334545E+002  0.41087941E+000 -0.14335416E+001
  0.16956805E+002 -0.58569054E+000 -0.15391240E+001
  0.17071636E+002 -0.29825653E+000 -0.35242302E+000
  0.17129522E+002 -0.93695768E-001 -0.12955063E-001
  0.17061293E+002 -0.31863381E+000  0.10833789E-001
  0.17012823E+002 -0.49936013E+000  0.87538207E-001
  0.17064959E+002 -0.31268922E+000  0.15167675E+000
  0.17060994E+002 -0.31984792E+000  0.32793162E+000
  0.17033208E+002 -0.39910968E+000  0.37613033E+000
  0.17072245E+002  0.98014192E-001  0.68349303E+000
  0.16959975E+002 -0.10327418E+000 -0.14815702E+001
  0.16959631E+002 -0.58350600E+000 -0.15760681E+001
  0.17064557E+002 -0.31989265E+000 -0.37949034E+000
  0.17117489E+002 -0.14333197E+000 -0.38398805E-001
  0.17030147E+002 -0.44040349E+000 -0.13443553E-001
  0.16973308E+002 -0.64703273E+000  0.12031961E+000
  0.17041932E+002 -0.39827695E+000  0.20316758E+000
  0.17047689E+002 -0.35928532E+000  0.37385056E+000
  0.17027537E+002 -0.40689347E+000  0.39621170E+000
  0.17063535E+002  0.79334357E-001  0.68382019E+000
  0.16956649E+002 -0.12798484E+000 -0.11780728E+001
  0.16964547E+002 -0.57673750E+000 -0.16081926E+001
  0.17057877E+002 -0.33986982E+000 -0.39079314E+000
  0.17101677E+002 -0.20294876E+000 -0.70090631E-001
  0.16991906E+002 -0.58017590E+000 -0.36542311E-001
  0.16925934E+002 -0.81277451E+000  0.15588516E+000
  0.17014790E+002 -0.49353076E+000  0.26109088E+000
  0.17033808E+002 -0.39930722E+000  0.41641370E+000
  0.17022739E+002 -0.41187925E+000  0.40562424E+000
  0.17070933E+002  0.91830239E-001  0.66857883E+000
  0.16930990E+002 -0.16589972E+000 -0.11815055E+001
  0.16982444E+002 -0.54280841E+000 -0.16393471E+001
  0.17034720E+002 -0.42926972E+000 -0.48640327E+000
  0.17063853E+002 -0.34772606E+000 -0.18717921E+000
  0.16947405E+002 -0.73177139E+000 -0.64767370E-001
  0.16871641E+002 -0.99109181E+000  0.19450381E+000
  0.16984340E+002 -0.59417665E+000  0.32782065E+000
  0.17020134E+002 -0.43738394E+000  0.46084911E+000
  0.17019978E+002 -0.41315612E+000  0.42499525E+000
  0.17075416E+002  0.98802115E-001  0.65447865E+000
  0.16824661E+002 -0.31813360E+000 -0.12849691E+001
  0.16997974E+002 -0.52351072E+000 -0.16966869E+001
  0.17030615E+002 -0.43837354E+000 -0.49831217E+000
  0.17042285E+002 -0.41434269E+000 -0.22226143E+000
  0.16881342E+002 -0.93237522E+000 -0.86010595E-001
  0.16812332E+002 -0.11732434E+001  0.23252061E+000
  0.16972905E+002 -0.66476583E+000  0.41624157E+000
  0.16987587E+002 -0.54690951E+000  0.57730328E+000
  0.17018862E+002 -0.41066492E+000  0.43551976E+000
  0.17076161E+002  0.98845003E-001  0.66781738E+000
  0.16805873E+002 -0.31023710E+000 -0.14975948E+001
  0.17019038E+002 -0.49987048E+000 -0.18122159E+001
  0.17029396E+002 -0.44033857E+000 -0.51998208E+000
  0.17034724E+002 -0.46145745E+000 -0.24583669E+000
  0.16835479E+002 -0.10876243E+001 -0.11553004E+000
  0.16740624E+002 -0.14407963E+001  0.26132308E+000
  0.16924128E+002 -0.83652543E+000  0.51019307E+000
  0.16979049E+002 -0.56610975E+000  0.60018085E+000
  0.17020086E+002 -0.40263394E+000  0.44250807E+000
  0.17088758E+002  0.12098681E+000  0.66146966E+000
  0.17122633E+002  0.67325890E-001 -0.58038521E+000
  0.17046277E+002 -0.45234928E+000 -0.17735037E+001
  0.17031588E+002 -0.43362192E+000 -0.51157548E+000
  0.17020786E+002 -0.49811599E+000 -0.26800095E+000
  0.16770701E+002 -0.12811898E+001 -0.13544051E+000
  0.16696655E+002 -0.15460556E+001  0.27431231E+000
  0.16909938E+002 -0.86849770E+000  0.53096372E+000
  0.16976053E+002 -0.57138670E+000  0.60254533E+000
  0.17024547E+002 -0.38985865E+000  0.46291630E+000
  0.17106431E+002  0.15254512E+000  0.66476992E+000
  0.17126895E+002  0.78167606E-001 -0.57848890E+000
  0.17070756E+002 -0.42301804E+000 -0.16792032E+001
  0.17037820E+002 -0.41690449E+000 -0.49137243E+000
  0.17010665E+002 -0.52411883E+000 -0.28097971E+000
  0.16740137E+002 -0.13530458E+001 -0.14886919E+000
  0.16671616E+002 -0.15934396E+001  0.28134500E+000
  0.16901726E+002 -0.88154959E+000  0.53978577E+000
  0.16978054E+002 -0.56407744E+000  0.59576397E+000
  0.17031387E+002 -0.37268253E+000  0.46592006E+000
  0.17072134E+002  0.85517931E-001  0.61797963E+000
  0.17175344E+002  0.19173559E+000 -0.12607096E+001
  0.17094171E+002 -0.38877710E+000 -0.15383190E+001
  0.17049385E+002 -0.38810568E+000 -0.44949298E+000
  0.17007310E+002 -0.53296991E+000 -0.28320333E+000
  0.16731815E+002 -0.13634147E+001 -0.16197890E+000
  0.16669482E+002 -0.15781016E+001  0.28248107E+000
  0.16904224E+002 -0.86890002E+000  0.53035812E+000
  0.16986719E+002 -0.54101374E+000  0.57071757E+000
  0.17040991E+002 -0.35081126E+000  0.46297724E+000
  0.17077455E+002  0.93998267E-001  0.60452971E+000
  0.17070329E+002  0.63514289E-001 -0.12320648E+001
  0.17105586E+002 -0.36890563E+000 -0.14041611E+001
  0.17065976E+002 -0.34825874E+000 -0.40066999E+000
  0.17013810E+002 -0.51805136E+000 -0.27097344E+000
  0.16754772E+002 -0.12908415E+001 -0.16660780E+000
  0.16699674E+002 -0.14783537E+001  0.27321064E+000
  0.16919266E+002 -0.82492037E+000  0.49897194E+000
  0.17002394E+002 -0.50185889E+000  0.52688643E+000
  0.17052668E+002 -0.32520134E+000  0.45271731E+000
  0.17086593E+002  0.10889753E+000  0.58145396E+000
  0.17131704E+002  0.15298977E+000 -0.11861678E+001
  0.17120258E+002 -0.33150958E+000 -0.11555504E+001
  0.17087303E+002 -0.29806655E+000 -0.33888102E+000
  0.17032702E+002 -0.47467568E+000 -0.23791824E+000
  0.16814477E+002 -0.11233971E+001 -0.15705750E+000
  0.16765776E+002 -0.12846062E+001  0.25005779E+000
  0.16949380E+002 -0.74555231E+000  0.43825749E+000
  0.17024799E+002 -0.44809404E+000  0.46979917E+000
  0.17068773E+002 -0.29719396E+000  0.43483989E+000
  0.17096224E+002  0.12544598E+000  0.58311658E+000
  0.17138877E+002  0.16579618E+000 -0.11097489E+001
  0.17130515E+002 -0.29520979E+000 -0.95818663E+000
  0.17113393E+002 -0.23910611E+000 -0.28117542E+000
  0.17064140E+002 -0.40234394E+000 -0.18929988E+000
  0.16905149E+002 -0.88401051E+000 -0.13030093E+000
  0.16866244E+002 -0.10080823E+001  0.21098923E+000
  0.16994314E+002 -0.63138123E+000  0.35992734E+000
  0.17053227E+002 -0.38174563E+000  0.39243223E+000
  0.17084211E+002 -0.26575418E+000  0.39854592E+000
  0.17101346E+002  0.13312360E+000  0.57788213E+000
  0.16952133E+002 -0.91101803E-001 -0.14662595E+001
  0.17135816E+002 -0.25164550E+000 -0.65897231E+000
  0.17142852E+002 -0.17416950E+000 -0.19968428E+000
  0.17107196E+002 -0.30567842E+000 -0.12567539E+000
  0.17019336E+002 -0.58836581E+000 -0.96464705E-001
  0.16986432E+002 -0.68441266E+000  0.16058457E+000
  0.17051599E+002 -0.48958840E+000  0.26338880E+000
  0.17084651E+002 -0.30950315E+000  0.31334029E+000
  0.17100719E+002 -0.23185184E+000  0.35058149E+000
  0.17160267E+002  0.24394352E+000  0.61714613E+000
  0.17013303E+002  0.20218094E-001 -0.14287804E+001
  0.17133770E+002 -0.23034474E+000 -0.42865674E+000
  0.17173802E+002 -0.10741486E+000 -0.11617841E+000
  0.17156550E+002 -0.19632461E+000 -0.54458197E-001
  0.17139369E+002 -0.28992386E+000 -0.55265260E-001
  0.17112395E+002 -0.35758287E+000  0.10195675E+000
  0.17116066E+002 -0.33396273E+000  0.15494780E+000
  0.17119464E+002 -0.23128418E+000  0.22091432E+000
  0.17116717E+002 -0.19864704E+000  0.29729528E+000
  0.17150308E+002  0.22231586E+000  0.58517068E+000
  0.16980253E+002  0.17169921E-001 -0.22956964E+001
  0.17147333E+002 -0.17515581E+000 -0.21835882E+000
  0.17204864E+002 -0.42640895E-001 -0.34838897E-001
  0.17206735E+002 -0.87678695E-001  0.15910782E-001
  0.17248960E+002 -0.31829439E-001 -0.84495750E-002
  0.17229231E+002 -0.74885905E-001  0.43624361E-001