# vtk DataFile Version 2.0

ASCII
 
DATASET POLYDATA
POINTS 80 double
  0.35490919E-001  0.68911999E-002  0.11318187E+003
  0.82997237E+001  0.18810995E+002  0.10091112E+003
  0.14159025E+002  0.32106077E+002  0.88712688E+002
  0.19067622E+002  0.43223034E+002  0.76477361E+002
  0.21506457E+002  0.48752160E+002  0.64216746E+002
  0.21501864E+002  0.48742920E+002  0.51966672E+002
  0.19059581E+002  0.43204983E+002  0.39711402E+002
  0.14154726E+002  0.32091329E+002  0.27469135E+002
  0.82946359E+001  0.18804127E+002  0.15255197E+002
  0.16171570E-003  0.40448781E-004  0.30001114E+001
  0.26943760E+001 -0.36235808E+001  0.11318363E+003
  0.12329543E+002  0.17014189E+002  0.10091058E+003
  0.16994148E+002  0.30860012E+002  0.88713498E+002
  0.21316450E+002  0.42237081E+002  0.76477975E+002
  0.23570247E+002  0.47841502E+002  0.64216872E+002
  0.23605046E+002  0.47812893E+002  0.51966318E+002
  0.21440644E+002  0.42159968E+002  0.39710710E+002
  0.17289704E+002  0.30710467E+002  0.27469384E+002
  0.12410044E+002  0.16983847E+002  0.15255474E+002
  0.41174904E+001 -0.18158710E+001  0.30084702E+001
  0.28005163E+001 -0.36712202E+001  0.11318261E+003
  0.12805736E+002  0.16788814E+002  0.10090799E+003
  0.17718913E+002  0.30548371E+002  0.88712816E+002
  0.22245211E+002  0.41845242E+002  0.76477332E+002
  0.24599102E+002  0.47407035E+002  0.64216473E+002
  0.24633325E+002  0.47377672E+002  0.51966812E+002
  0.22367904E+002  0.41765691E+002  0.39711523E+002
  0.18011628E+002  0.30393348E+002  0.27470231E+002
  0.12885566E+002  0.16756941E+002  0.15256659E+002
  0.42557188E+001 -0.18896305E+001  0.30092948E+001
  0.28924859E+001 -0.37195128E+001  0.11318171E+003
  0.13278546E+002  0.16561758E+002  0.10091848E+003
  0.18433834E+002  0.30212629E+002  0.88709102E+002
  0.23160048E+002  0.41422739E+002  0.76469704E+002
  0.25620360E+002  0.46954781E+002  0.64216004E+002
  0.25656545E+002  0.46929804E+002  0.51967857E+002
  0.23285454E+002  0.41349832E+002  0.39717013E+002
  0.18725479E+002  0.30058766E+002  0.27475648E+002
  0.13358305E+002  0.16526296E+002  0.15253910E+002
  0.43928152E+001 -0.19628725E+001  0.30068413E+001
  0.29862348E+001 -0.37663516E+001  0.11318142E+003
  0.13747965E+002  0.16328626E+002  0.10092821E+003
  0.19142825E+002  0.29869082E+002  0.88705445E+002
  0.24067592E+002  0.40989866E+002  0.76463629E+002
  0.26632433E+002  0.46486806E+002  0.64215290E+002
  0.26670260E+002  0.46464915E+002  0.51968625E+002
  0.24194874E+002  0.40920788E+002  0.39721229E+002
  0.19433428E+002  0.29715307E+002  0.27479556E+002
  0.13827015E+002  0.16290305E+002  0.15250233E+002
  0.45286928E+001 -0.20355822E+001  0.30044893E+001
  0.30820662E+001 -0.38116377E+001  0.11318138E+003
  0.14213221E+002  0.16089070E+002  0.10093557E+003
  0.19845728E+002  0.29518441E+002  0.88701829E+002
  0.24967916E+002  0.40546543E+002  0.76459225E+002
  0.27634462E+002  0.46001833E+002  0.64214323E+002
  0.27673021E+002  0.45981091E+002  0.51969257E+002
  0.25095634E+002  0.40478174E+002  0.39724390E+002
  0.20134748E+002  0.29362274E+002  0.27483220E+002
  0.14290863E+002  0.16047848E+002  0.15247073E+002
  0.46632524E+001 -0.21076998E+001  0.30025555E+001
  0.31807440E+001 -0.38550393E+001  0.11318138E+003
  0.14673255E+002  0.15842644E+002  0.10093886E+003
  0.20543356E+002  0.29162451E+002  0.88699337E+002
  0.25861903E+002  0.40094308E+002  0.76456736E+002
  0.28627223E+002  0.45502126E+002  0.64213388E+002
  0.28665663E+002  0.45481041E+002  0.51969686E+002
  0.25988725E+002  0.40024338E+002  0.39726253E+002
  0.20830408E+002  0.29002378E+002  0.27484777E+002
  0.14750000E+002  0.15800106E+002  0.15244141E+002
  0.47965325E+001 -0.21791027E+001  0.30014147E+001
  0.32818278E+001 -0.38964428E+001  0.11318139E+003
  0.15128577E+002  0.15591391E+002  0.10094031E+003
  0.21236255E+002  0.28801061E+002  0.88698061E+002
  0.26750604E+002  0.39634993E+002  0.76456177E+002
  0.29612926E+002  0.44992162E+002  0.64213086E+002
  0.29650949E+002  0.44970311E+002  0.51969785E+002
  0.26876076E+002  0.39562706E+002  0.39726644E+002
  0.21520902E+002  0.28636590E+002  0.27484919E+002
  0.15204386E+002  0.15547305E+002  0.15242978E+002
  0.49286176E+001 -0.22496845E+001  0.30010831E+001
  
POLYGONS 63 315
      4      0      1     11     10
      4      1      2     12     11
      4      2      3     13     12
      4      3      4     14     13
      4      4      5     15     14
      4      5      6     16     15
      4      6      7     17     16
      4      7      8     18     17
      4      8      9     19     18
      4     10     11     21     20
      4     11     12     22     21
      4     12     13     23     22
      4     13     14     24     23
      4     14     15     25     24
      4     15     16     26     25
      4     16     17     27     26
      4     17     18     28     27
      4     18     19     29     28
      4     20     21     31     30
      4     21     22     32     31
      4     22     23     33     32
      4     23     24     34     33
      4     24     25     35     34
      4     25     26     36     35
      4     26     27     37     36
      4     27     28     38     37
      4     28     29     39     38
      4     30     31     41     40
      4     31     32     42     41
      4     32     33     43     42
      4     33     34     44     43
      4     34     35     45     44
      4     35     36     46     45
      4     36     37     47     46
      4     37     38     48     47
      4     38     39     49     48
      4     40     41     51     50
      4     41     42     52     51
      4     42     43     53     52
      4     43     44     54     53
      4     44     45     55     54
      4     45     46     56     55
      4     46     47     57     56
      4     47     48     58     57
      4     48     49     59     58
      4     50     51     61     60
      4     51     52     62     61
      4     52     53     63     62
      4     53     54     64     63
      4     54     55     65     64
      4     55     56     66     65
      4     56     57     67     66
      4     57     58     68     67
      4     58     59     69     68
      4     60     61     71     70
      4     61     62     72     71
      4     62     63     73     72
      4     63     64     74     73
      4     64     65     75     74
      4     65     66     76     75
      4     66     67     77     76
      4     67     68     78     77
      4     68     69     79     78
  
CELL_DATA 63
SCALARS Gamma double
LOOKUP_TABLE default
  0.58178887E+002
  0.30139075E+002
  0.17187148E+002
  0.23631924E+002
  0.30994776E+002
  0.27590611E+002
  0.22857827E+002
  0.31424827E+002
  0.33291473E+002
  0.58178887E+002
  0.30139075E+002
  0.17187148E+002
  0.23631924E+002
  0.30994776E+002
  0.27590611E+002
  0.22857827E+002
  0.31424827E+002
  0.33291473E+002
  0.35761694E+002
  0.19421458E+002
  0.11297451E+002
  0.15331624E+002
  0.19929530E+002
  0.17800053E+002
  0.14857698E+002
  0.20276385E+002
  0.21328000E+002
  0.15959946E+002
  0.89899100E+001
  0.56573961E+001
  0.72274289E+001
  0.89183685E+001
  0.81136264E+001
  0.70842443E+001
  0.95628548E+001
  0.98835952E+001
  0.32256505E+001
  0.18979344E+001
  0.12865983E+001
  0.15436262E+001
  0.18072758E+001
  0.16817938E+001
  0.15339126E+001
  0.20388992E+001
  0.20787311E+001
  0.37831218E-001
  0.23374740E-001
  0.16846978E-001
  0.18749696E-001
  0.20843277E-001
  0.19884976E-001
  0.19074689E-001
  0.25027292E-001
  0.25240302E-001
  0.00000000E+000
  0.00000000E+000
  0.00000000E+000
  0.00000000E+000
  0.00000000E+000
  0.00000000E+000
  0.00000000E+000
  0.00000000E+000
  0.00000000E+000
POINT_DATA 80
VECTORS Uconv double
  0.00000000E+000  0.00000000E+000  0.00000000E+000
  0.00000000E+000  0.00000000E+000  0.00000000E+000
  0.00000000E+000  0.00000000E+000  0.00000000E+000
  0.00000000E+000  0.00000000E+000  0.00000000E+000
  0.00000000E+000  0.00000000E+000  0.00000000E+000
  0.00000000E+000  0.00000000E+000  0.00000000E+000
  0.00000000E+000  0.00000000E+000  0.00000000E+000
  0.00000000E+000  0.00000000E+000  0.00000000E+000
  0.00000000E+000  0.00000000E+000  0.00000000E+000
  0.00000000E+000  0.00000000E+000  0.00000000E+000
  0.00000000E+000  0.00000000E+000  0.00000000E+000
  0.00000000E+000  0.00000000E+000  0.00000000E+000
  0.00000000E+000  0.00000000E+000  0.00000000E+000
  0.00000000E+000  0.00000000E+000  0.00000000E+000
  0.00000000E+000  0.00000000E+000  0.00000000E+000
  0.00000000E+000  0.00000000E+000  0.00000000E+000
  0.00000000E+000  0.00000000E+000  0.00000000E+000
  0.00000000E+000  0.00000000E+000  0.00000000E+000
  0.00000000E+000  0.00000000E+000  0.00000000E+000
  0.00000000E+000  0.00000000E+000  0.00000000E+000
  0.17184113E+002  0.30081752E-001 -0.10245532E+000
  0.17175291E+002 -0.55130660E-001 -0.25960128E+000
  0.17170726E+002 -0.55714505E-001 -0.68172120E-001
  0.17149607E+002 -0.10567680E+000 -0.63528366E-001
  0.17101235E+002 -0.21855690E+000 -0.39941483E-001
  0.17095641E+002 -0.23210364E+000  0.49411989E-001
  0.17140221E+002 -0.12773747E+000  0.81306486E-001
  0.17160803E+002 -0.73615240E-001  0.84711004E-001
  0.17164196E+002 -0.63711784E-001  0.11849397E+000
  0.17160157E+002  0.10538752E-001  0.82472101E-001
  0.17185189E+002  0.33013578E-001 -0.10194832E+000
  0.17182145E+002 -0.40757370E-001 -0.18641956E+000
  0.17181961E+002 -0.32853714E-001 -0.40124955E-001
  0.17170903E+002 -0.61799088E-001 -0.32774044E-001
  0.17143312E+002 -0.12558037E+000 -0.21402558E-001
  0.17140099E+002 -0.13302959E+000  0.27784734E-001
  0.17164644E+002 -0.75283217E-001  0.44461895E-001
  0.17173607E+002 -0.47580789E-001  0.53352541E-001
  0.17171401E+002 -0.48926373E-001  0.85719939E-001
  0.17161955E+002  0.12994398E-001  0.79698211E-001
  0.17186241E+002  0.36007272E-001 -0.10143886E+000
  0.17188972E+002 -0.26016455E-001 -0.11347740E+000
  0.17194113E+002 -0.88529969E-002 -0.10504120E-001
  0.17195342E+002 -0.12702562E-001  0.14861942E-002
  0.17193490E+002 -0.19148086E-001 -0.35396453E-004
  0.17192865E+002 -0.20132669E-001  0.27023523E-002
  0.17192631E+002 -0.17399680E-001  0.38500175E-002
  0.17187258E+002 -0.20592740E-001  0.20634281E-001
  0.17178692E+002 -0.34072683E-001  0.52506010E-001
  0.17163730E+002  0.15439912E-001  0.77023966E-001
  0.17187267E+002  0.39061023E-001 -0.10092589E+000
  0.17195884E+002 -0.11347059E-001 -0.45960860E-001
  0.17206332E+002  0.14588720E-001  0.18633299E-001
  0.17218792E+002  0.33051711E-001  0.33719805E-001
  0.17239167E+002  0.73153989E-001  0.19512394E-001
  0.17241015E+002  0.77547065E-001 -0.20285871E-001
  0.17219407E+002  0.35772900E-001 -0.33959839E-001
  0.17171728E+002 -0.55899627E-001  0.69553409E-001
  0.17157626E+002 -0.79555460E-001  0.99604394E-001
  0.17165467E+002  0.17853352E-001  0.74455477E-001
  0.17188260E+002  0.42184241E-001 -0.10040483E+000
  0.17176356E+002 -0.53089069E-001 -0.61606295E-001
  0.17217715E+002  0.35947410E-001  0.45372530E-001
  0.17237600E+002  0.68568264E-001  0.59304647E-001
  0.17270606E+002  0.13307318E+000  0.33536926E-001
  0.17274350E+002  0.14101508E+000 -0.36862899E-001
  0.17240768E+002  0.76317694E-001 -0.63587040E-001
  0.17184703E+002 -0.30955050E-001  0.38865310E-001
  0.17165286E+002 -0.64018534E-001  0.68646305E-001
  0.17167190E+002  0.20252956E-001  0.71978628E-001
  0.17189215E+002  0.45361421E-001 -0.99868889E-001
  0.17183686E+002 -0.37817466E-001 -0.14344832E-001
  0.17200637E+002 -0.16324480E-002 -0.54410311E-002
  0.17249958E+002  0.90875291E-001  0.76016317E-001
  0.17285373E+002  0.15845601E+000  0.40756379E-001
  0.17290177E+002  0.16808958E+000 -0.45505328E-001
  0.17254586E+002  0.10138278E+000 -0.82798421E-001
  0.17196365E+002 -0.89540397E-002  0.11524654E-001
  0.17172783E+002 -0.49162728E-001  0.41475950E-001
  0.17168886E+002  0.22621192E-001  0.69594385E-001
