# vtk DataFile Version 2.0
Sgmt
ASCII
 
DATASET POLYDATA
POINTS 1890 double
  0.38138738E+000  0.93182340E-001  0.11318046E+003
 -0.19172100E+002 -0.69387520E+001  0.10134400E+003
 -0.32929615E+002 -0.11969606E+002  0.89262329E+002
 -0.44057036E+002 -0.16168982E+002  0.76827903E+002
 -0.49604765E+002 -0.18298010E+002  0.64530770E+002
 -0.49614664E+002 -0.18322954E+002  0.52279996E+002
 -0.44029305E+002 -0.16196255E+002  0.40002081E+002
 -0.32910626E+002 -0.11934987E+002  0.27538316E+002
 -0.19337515E+002 -0.69621323E+001  0.15242908E+002
  0.15468668E-003  0.24858540E-004  0.30001972E+001
 -0.38542194E+001 -0.14239116E+001  0.11309068E+003
 -0.20684763E+002 -0.27939051E+001  0.10133691E+003
 -0.34008961E+002 -0.90669173E+001  0.89259454E+002
 -0.44865874E+002 -0.13850633E+002  0.76808652E+002
 -0.50311893E+002 -0.16155961E+002  0.64519806E+002
 -0.50339725E+002 -0.16140644E+002  0.52291730E+002
 -0.44856361E+002 -0.13731005E+002  0.40007953E+002
 -0.34031456E+002 -0.86979305E+001  0.27546650E+002
 -0.20828085E+002 -0.27161713E+001  0.15247081E+002
 -0.15076720E+001  0.42398866E+001  0.30058214E+001
 -0.37078253E+001 -0.13565276E+001  0.11309174E+003
 -0.20573702E+002 -0.24157413E+001  0.10136280E+003
 -0.34014630E+002 -0.84510023E+001  0.89278104E+002
 -0.44952633E+002 -0.13040400E+002  0.76818593E+002
 -0.50434983E+002 -0.15247104E+002  0.64522534E+002
 -0.50460158E+002 -0.15231039E+002  0.52290491E+002
 -0.44935843E+002 -0.12920892E+002  0.40002021E+002
 -0.34026136E+002 -0.80826507E+001  0.27531504E+002
 -0.20717772E+002 -0.23362666E+001  0.15233640E+002
 -0.12611969E+001  0.42680513E+001  0.30055318E+001
 -0.35954041E+001 -0.12908429E+001  0.11310101E+003
 -0.20474053E+002 -0.20294839E+001  0.10136109E+003
 -0.34015012E+002 -0.78100508E+001  0.89248273E+002
 -0.45057353E+002 -0.12191697E+002  0.76793490E+002
 -0.50599032E+002 -0.14293178E+002  0.64495068E+002
 -0.50622380E+002 -0.14275772E+002  0.52256425E+002
 -0.45044202E+002 -0.12075554E+002  0.39965799E+002
 -0.34024026E+002 -0.74514950E+001  0.27505253E+002
 -0.20603294E+002 -0.19509296E+001  0.15221338E+002
 -0.10147546E+001  0.42936943E+001  0.30043808E+001
 -0.34810442E+001 -0.12242726E+001  0.11311026E+003
 -0.20364222E+002 -0.16430962E+001  0.10136101E+003
 -0.34003101E+002 -0.71666937E+001  0.89219154E+002
 -0.45149453E+002 -0.11338917E+002  0.76771176E+002
 -0.50749229E+002 -0.13333880E+002  0.64469733E+002
 -0.50769780E+002 -0.13314729E+002  0.52222739E+002
 -0.45138851E+002 -0.11224963E+002  0.39928945E+002
 -0.34010650E+002 -0.68169953E+001  0.27478056E+002
 -0.20480413E+002 -0.15650984E+001  0.15209747E+002
 -0.76825535E+000  0.43178925E+001  0.30039342E+001
 -0.33645383E+001 -0.11569896E+001  0.11311962E+003
 -0.20245420E+002 -0.12565703E+001  0.10134736E+003
 -0.33978402E+002 -0.65213525E+001  0.89190680E+002
 -0.45228685E+002 -0.10482350E+002  0.76752287E+002
 -0.50885886E+002 -0.12369492E+002  0.64446764E+002
 -0.50903229E+002 -0.12348366E+002  0.52189267E+002
 -0.45219080E+002 -0.10369649E+002  0.39891463E+002
 -0.33985383E+002 -0.61794134E+001  0.27451870E+002
 -0.20349008E+002 -0.11790917E+001  0.15200273E+002
 -0.52141566E+000  0.43391084E+001  0.30039192E+001
 -0.32458547E+001 -0.10888415E+001  0.11314154E+003
 -0.20115213E+002 -0.87094623E+000  0.10134468E+003
 -0.33940230E+002 -0.58745247E+001  0.89161898E+002
 -0.45290092E+002 -0.96225295E+001  0.76734368E+002
 -0.51006954E+002 -0.11400470E+002  0.64424954E+002
 -0.51023515E+002 -0.11377361E+002  0.52155615E+002
 -0.45283201E+002 -0.95101213E+001  0.39854341E+002
 -0.33947297E+002 -0.55391763E+001  0.27426964E+002
 -0.20207951E+002 -0.79360345E+000  0.15187131E+002
 -0.27434080E+000  0.43584639E+001  0.30042780E+001
 -0.31246966E+001 -0.10199382E+001  0.11314300E+003
 -0.19972363E+002 -0.48695768E+000  0.10134830E+003
 -0.33887710E+002 -0.52267490E+001  0.89132846E+002
 -0.45337982E+002 -0.87596197E+001  0.76719428E+002
 -0.51112027E+002 -0.10427306E+002  0.64405661E+002
 -0.51124386E+002 -0.10402005E+002  0.52123714E+002
 -0.45332299E+002 -0.86467188E+001  0.39817137E+002
 -0.33895327E+002 -0.48967773E+001  0.27404327E+002
 -0.20057578E+002 -0.40778013E+000  0.15187381E+002
 -0.25953675E-001  0.43764747E+001  0.30095263E+001
 -0.30010704E+001 -0.95032711E+000  0.11312480E+003
 -0.19821834E+002 -0.10332540E+000  0.10132960E+003
 -0.33819756E+002 -0.45787033E+001  0.89101740E+002
 -0.45375278E+002 -0.78945877E+001  0.76709221E+002
 -0.51202027E+002 -0.94504098E+001  0.64388695E+002
 -0.51211620E+002 -0.94229878E+001  0.52092202E+002
 -0.45366296E+002 -0.77798684E+001  0.39779821E+002
 -0.33828627E+002 -0.42527064E+001  0.27386492E+002
 -0.19897163E+002 -0.23014030E-001  0.15183292E+002
  0.22253890E+000  0.43930658E+001  0.30143616E+001
 -0.28748883E+001 -0.87974093E+000  0.11312551E+003
 -0.19661316E+002  0.27915670E+000  0.10131907E+003
 -0.33740135E+002 -0.39314627E+001  0.89073342E+002
 -0.45387465E+002 -0.70267259E+001  0.76696119E+002
 -0.51275315E+002 -0.84708618E+001  0.64374700E+002
 -0.51281600E+002 -0.84411533E+001  0.52061921E+002
 -0.45382651E+002 -0.69106609E+001  0.39744095E+002
 -0.33752140E+002 -0.36087132E+001  0.27365516E+002
 -0.19727205E+002  0.36030271E+000  0.15180318E+002
  0.47104537E+000  0.44079034E+001  0.30233526E+001
 -0.27460250E+001 -0.80853972E+000  0.11312833E+003
 -0.19493137E+002  0.66106604E+000  0.10128566E+003
 -0.33642983E+002 -0.32849992E+001  0.89041974E+002
 -0.45376034E+002 -0.61576626E+001  0.76680931E+002
 -0.51321001E+002 -0.74882353E+001  0.64359486E+002
 -0.51328872E+002 -0.74568959E+001  0.52032385E+002
 -0.45372291E+002 -0.60391754E+001  0.39715012E+002
 -0.33653980E+002 -0.29640448E+001  0.27354904E+002
 -0.19548052E+002  0.74265044E+000  0.15184439E+002
  0.71949426E+000  0.44218584E+001  0.30335231E+001
 -0.26141561E+001 -0.73634264E+000  0.11312892E+003
 -0.19314265E+002  0.10409135E+001  0.10126155E+003
 -0.33526578E+002 -0.26403363E+001  0.89005650E+002
 -0.45339848E+002 -0.52896460E+001  0.76665765E+002
 -0.51332828E+002 -0.65046890E+001  0.64342193E+002
 -0.51341758E+002 -0.64708552E+001  0.52008267E+002
 -0.45334033E+002 -0.51670875E+001  0.39693204E+002
 -0.33537389E+002 -0.23197801E+001  0.27349962E+002
 -0.19360590E+002  0.11240720E+001  0.15183875E+002
  0.96806823E+000  0.44333815E+001  0.30404747E+001
 -0.24787319E+001 -0.66321438E+000  0.11311225E+003
 -0.19124107E+002  0.14185367E+001  0.10123748E+003
 -0.33391880E+002 -0.19976315E+001  0.88966469E+002
 -0.45275409E+002 -0.44221321E+001  0.76646560E+002
 -0.51299019E+002 -0.55207609E+001  0.64323780E+002
 -0.51304095E+002 -0.54844153E+001  0.51989587E+002
 -0.45275694E+002 -0.42965950E+001  0.39670113E+002
 -0.33398685E+002 -0.16762886E+001  0.27356325E+002
 -0.19163830E+002  0.15038983E+001  0.15190430E+002
  0.12169199E+001  0.44432030E+001  0.30459458E+001
 -0.23397452E+001 -0.58774367E+000  0.11309325E+003
 -0.18925078E+002  0.17930424E+001  0.10118695E+003
 -0.33238659E+002 -0.13574634E+001  0.88924540E+002
 -0.45182621E+002 -0.35570845E+001  0.76622153E+002
 -0.51214016E+002 -0.45395626E+001  0.64302680E+002
 -0.51219738E+002 -0.45011407E+001  0.51977953E+002
 -0.45182518E+002 -0.34277027E+001  0.39661512E+002
 -0.33240645E+002 -0.10350800E+001  0.27368052E+002
 -0.18961842E+002  0.18816418E+001  0.15191717E+002
  0.14662207E+001  0.44514647E+001  0.30517402E+001
 -0.21973502E+001 -0.51133126E+000  0.11309489E+003
 -0.18736237E+002  0.21684879E+001  0.10115188E+003
 -0.33063471E+002 -0.72008826E+000  0.88876249E+002
 -0.45058947E+002 -0.26948914E+001  0.76591687E+002
 -0.51089366E+002 -0.35635246E+001  0.64281433E+002
 -0.51095432E+002 -0.35231099E+001  0.51970429E+002
 -0.45059004E+002 -0.25615639E+001  0.39662572E+002
 -0.33065926E+002 -0.39600706E+000  0.27386466E+002
 -0.18758002E+002  0.22579813E+001  0.15181381E+002
  0.17160875E+001  0.44584362E+001  0.30568796E+001
 -0.20508228E+001 -0.43392745E+000  0.11309545E+003
 -0.18522797E+002  0.25397927E+001  0.10107113E+003
 -0.32872686E+002 -0.85617164E-001  0.88827523E+002
 -0.44906764E+002 -0.18362195E+001  0.76557399E+002
 -0.50925111E+002 -0.25935683E+001  0.64258584E+002
 -0.50934556E+002 -0.25512680E+001  0.51969248E+002
 -0.44901565E+002 -0.16991162E+001  0.39677503E+002
 -0.32875094E+002  0.24052342E+000  0.27408869E+002
 -0.18535698E+002  0.26340670E+001  0.15190014E+002
  0.19665580E+001  0.44639809E+001  0.30621644E+001
 -0.18999610E+001 -0.35554731E+000  0.11309623E+003
 -0.18295799E+002  0.29109518E+001  0.10102214E+003
 -0.32668091E+002  0.54635662E+000  0.88781539E+002
 -0.44724505E+002 -0.98143398E+000  0.76516051E+002
 -0.50737707E+002 -0.16291562E+001  0.64236370E+002
 -0.50743096E+002 -0.15854004E+001  0.51973006E+002
 -0.44721209E+002 -0.84065909E+000  0.39698010E+002
 -0.32670072E+002  0.87454428E+000  0.27434099E+002
 -0.18306101E+002  0.30083080E+001  0.15199642E+002
  0.22179228E+001  0.44690901E+001  0.30659154E+001
 -0.17447213E+001 -0.27606330E+000  0.11309682E+003
 -0.18063554E+002  0.32817223E+001  0.10096884E+003
 -0.32451284E+002  0.11760166E+001  0.88739097E+002
 -0.44524799E+002 -0.12977559E+000  0.76476343E+002
 -0.50529982E+002 -0.66853742E+000  0.64216278E+002
 -0.50534633E+002 -0.62373090E+000  0.51979585E+002
 -0.44523791E+002  0.14218793E-001  0.39721238E+002
 -0.32452950E+002  0.15062058E+001  0.27460950E+002
 -0.18070410E+002  0.33815561E+001  0.15207810E+002
  0.24694239E+001  0.44729085E+001  0.30702318E+001
 -0.15847104E+001 -0.19596029E+000  0.11309638E+003
 -0.17823596E+002  0.36508521E+001  0.10091728E+003
 -0.32222963E+002  0.18034757E+001  0.88702041E+002
 -0.44307514E+002  0.71883673E+000  0.76440513E+002
 -0.50314819E+002  0.28995559E+000  0.64200895E+002
 -0.50318677E+002  0.33517311E+000  0.51986677E+002
 -0.44309351E+002  0.86551459E+000  0.39746219E+002
 -0.32225015E+002  0.21354723E+001  0.27486577E+002
 -0.17827099E+002  0.37525114E+001  0.15210764E+002
  0.27210151E+001  0.44756230E+001  0.30747522E+001
[...]
CELL_DATA 3501
SCALARS Gamma double
LOOKUP_TABLE default
 -0.38669417E+001
  0.38669417E+001
 -0.15530628E+003
  0.15143933E+003
 -0.14115103E+003
 -0.14155247E+002
 -0.10505836E+003
 -0.36092666E+002
 -0.82565390E+002
 -0.22492973E+002
 -0.72960950E+002
 -0.96044399E+001
 -0.89076313E+002
  0.16115362E+002
 -0.13252369E+003
  0.43447377E+002
 -0.54528913E+002
 -0.77994777E+002
 -0.54528913E+002
  0.00000000E+000
  0.38669417E+001
  0.00000000E+000
  0.15143933E+003
  0.00000000E+000
 -0.14155247E+002
  0.00000000E+000
 -0.36092666E+002
  0.00000000E+000
 -0.22492973E+002
  0.00000000E+000
 -0.96044399E+001
  0.00000000E+000
  0.16115362E+002
  0.00000000E+000
  0.43447377E+002
  0.00000000E+000
 -0.77994777E+002
 -0.54528913E+002
 -0.29050615E+000
  0.41574479E+001
 -0.10096237E+001
  0.15215845E+003
 -0.11481292E+001
 -0.14016741E+002
 -0.58247952E+000
 -0.36658316E+002
 -0.15642557E+000
 -0.22919027E+002
 -0.40251847E+000
 -0.93583470E+001
 -0.12433786E+001
  0.16956222E+002
 -0.13375618E+001
  0.43541560E+002
 -0.21369766E+001
 -0.77195362E+002
 -0.56665889E+002
 -0.97338106E-001
  0.42547860E+001
 -0.99472560E+000
  0.15305584E+003
 -0.69889533E+000
 -0.14312572E+002
 -0.21112225E+001
 -0.35245989E+002
 -0.37786675E+001
 -0.21251582E+002
 -0.44557757E+001
 -0.86812389E+001
 -0.42452381E+001
  0.16745685E+002
 -0.24103089E+001
  0.41706631E+002
 -0.20295205E+001
 -0.77576151E+002
 -0.58695410E+002
 -0.10635465E+000
  0.43611406E+001
 -0.91854594E+000
  0.15386803E+003
 -0.54655424E+000
 -0.14684563E+002
 -0.23314196E+001
 -0.33461123E+002
 -0.41026291E+001
 -0.19480372E+002
 -0.46741061E+001
 -0.81097619E+001
 -0.43025796E+001
  0.16374158E+002
 -0.24285716E+001
  0.39832623E+002
 -0.20680711E+001
 -0.77936651E+002
 -0.60763481E+002
 -0.11485175E+000
  0.44759924E+001
 -0.83517156E+000
  0.15458835E+003
 -0.38570430E+000
 -0.15134031E+002
 -0.20659429E+001
 -0.31780885E+002
 -0.44499391E+001
 -0.17096376E+002
 -0.48851336E+001
 -0.76745674E+001
 -0.43079570E+001
  0.15796982E+002
 -0.24364484E+001
  0.37961114E+002
 -0.21065739E+001
 -0.78266526E+002
 -0.62870055E+002
 -0.12186431E+000
  0.45978567E+001
 -0.73697808E+000
  0.15520346E+003
 -0.18697577E+000
 -0.15684033E+002
 -0.22518348E+001
 -0.29716026E+002
 -0.49215414E+001
 -0.14426669E+002
 -0.51651845E+001
 -0.74309243E+001
 -0.42935679E+001
  0.14925365E+002
 -0.23938117E+001
  0.36061358E+002
 -0.21508727E+001
 -0.78509465E+002
 -0.65020927E+002
 -0.13068741E+000
  0.47285441E+001
 -0.65029999E+000
  0.15572308E+003
 -0.74135204E-001
 -0.16260198E+002
 -0.23141768E+001
 -0.27475984E+002
 -0.50345155E+001
 -0.11706331E+002
 -0.51552368E+001
 -0.73102029E+001
 -0.42361870E+001
  0.14006315E+002
 -0.22305834E+001
  0.34055755E+002
 -0.21797801E+001
 -0.78560268E+002
 -0.67200707E+002
 -0.13745155E+000
  0.48659957E+001
 -0.55263701E+000
  0.15613826E+003
  0.70155900E-001
 -0.16882991E+002
 -0.23672779E+001
 -0.25038550E+002
 -0.51899116E+001
 -0.88836971E+001
 -0.51982565E+001
 -0.73018580E+001
 -0.39157700E+001
  0.12723829E+002
 -0.21037404E+001
  0.32243725E+002
 -0.22148052E+001
 -0.78449203E+002
 -0.69415513E+002
 -0.14351985E+000
  0.50095155E+001
 -0.44288301E+000
  0.15643763E+003
  0.19745549E+000
 -0.17523329E+002
 -0.24051006E+001
 -0.22435994E+002
 -0.49591754E+001
 -0.63296223E+001
 -0.52127925E+001
 -0.70482410E+001
 -0.32331920E+001
  0.10744228E+002
 -0.20389841E+001
  0.31049517E+002
 -0.22450642E+001
 -0.78243123E+002
 -0.71660577E+002
 -0.13997529E+000
  0.51494908E+001
 -0.92830764E-001
  0.15639048E+003
  0.52297140E+000
 -0.18139131E+002
 -0.23503403E+001
 -0.19562683E+002
 -0.39115262E+001
 -0.47684364E+001
 -0.50048418E+001
 -0.59549254E+001
 -0.29758320E+001
  0.87152186E+001
 -0.17509083E+001
  0.29824593E+002
 -0.21431196E+001
 -0.77850912E+002
 -0.73803696E+002
  0.14837073E-001
  0.51346537E+001
  0.48806848E+001
  0.15152463E+003
  0.49326920E+001
 -0.18191138E+002
  0.12062066E+001
 -0.15836197E+002
 -0.13701543E+000
 -0.34252144E+001
 -0.79400306E+000
 -0.52979378E+001
  0.88270414E+000
  0.70385114E+001
  0.29489499E+001
  0.27758347E+002
  0.14956181E+000
 -0.75051524E+002
 -0.73654135E+002
  0.47592712E+000
  0.46587266E+001
  0.18303795E+002
  0.13369677E+003
  0.16748446E+002
 -0.16635789E+002
  0.12128025E+002
 -0.11215776E+002
  0.10640676E+002
 -0.19378658E+001
  0.10099609E+002
 -0.47568714E+001
  0.11731022E+002
  0.54070988E+001
  0.15972660E+002
  0.23516710E+002
  0.67350539E+001
 -0.65813918E+002
 -0.66919081E+002
  0.83211125E+000
  0.38266154E+001
  0.27867914E+002
  0.10666096E+003
  0.24918373E+002
 -0.13686248E+002
  0.20471167E+002
 -0.67685699E+001
  0.18877183E+002
 -0.34388132E+000
  0.18315604E+002
 -0.41952929E+001
  0.19841319E+002
  0.38813838E+001
  0.25575396E+002
  0.17782634E+002
  0.12482756E+002
 -0.52721278E+002
 -0.54436325E+002
  0.99235881E+000
  0.28342566E+001
  0.31099255E+002
  0.76554066E+002
  0.27415886E+002
 -0.10002878E+002
  0.23975277E+002
 -0.33279609E+001
  0.23038709E+002
  0.59268608E+000
  0.22064967E+002
 -0.32215504E+001
  0.23517145E+002
  0.24292057E+001
  0.29201645E+002
  0.12098133E+002
  0.14721714E+002
 -0.38241348E+002
 -0.39714610E+002
  0.10427003E+001
  0.17915563E+001
  0.30769127E+002
  0.46827639E+002
  0.26983230E+002
 -0.62169816E+001
  0.24776825E+002
 -0.11215561E+001
  0.24504431E+002
  0.86508056E+000
  0.23208485E+002
 -0.19256050E+001
  0.24544431E+002
  0.10932602E+001
  0.29638113E+002
  0.70044515E+001
  0.14999923E+002
 -0.23603158E+002
 -0.24714688E+002
  0.97299534E+000
  0.81856091E+000
  0.27077488E+002
  0.20723147E+002
  0.23657597E+002
 -0.27970910E+001
  0.22649332E+002
 -0.11329133E+000
  0.22929610E+002
  0.58480337E+000
  0.21802107E+002
 -0.79810264E+000
  0.22590109E+002
  0.30525857E+000
  0.26662817E+002
  0.29317436E+001
  0.13579584E+002
 -0.10519925E+002
 -0.11135103E+002
  0.64872544E+000
  0.16983547E+000
  0.17225887E+002
  0.41459856E+001
  0.14985761E+002
 -0.55696483E+000
  0.14823631E+002
  0.48838483E-001
  0.15253043E+002
  0.15539132E+000
  0.14596251E+002
 -0.14131106E+000
  0.14877618E+002
  0.23892066E-001
  0.17257262E+002
  0.55209979E+000
  0.88586096E+001
 -0.21212729E+001
 -0.22764939E+001
  0.16779964E+000
  0.20358333E-002
  0.42656912E+001
  0.48093971E-001
  0.37150864E+001
 -0.63599538E-002
  0.37625785E+001
  0.13463489E-002
  0.39157448E+001
  0.22250323E-002
  0.37758405E+001
 -0.14067937E-002
  0.37998844E+001
 -0.15175484E-003
  0.43459621E+001
  0.60219938E-002
  0.22494345E+001
 -0.24745317E-001
 -0.27059359E-001
  0.20358333E-002
  0.00000000E+000
  0.00000000E+000
  0.50129804E-001
 -0.00000000E+000
  0.00000000E+000
  0.43769850E-001
 -0.00000000E+000
  0.00000000E+000
  0.45116199E-001
 -0.00000000E+000
  0.00000000E+000
  0.47341231E-001
 -0.00000000E+000
  0.00000000E+000
  0.45934438E-001
 -0.00000000E+000
  0.00000000E+000
  0.45782683E-001
 -0.00000000E+000
  0.00000000E+000
  0.51804677E-001
 -0.00000000E+000
  0.00000000E+000
  0.27059359E-001
 -0.00000000E+000
  0.00000000E+000
 -0.00000000E+000
  0.10291981E+003
 -0.10291981E+003
  0.43935981E+002
  0.58983824E+002
  0.17207899E+002
  0.26728082E+002
  0.13413874E+002
  0.37940258E+001
  0.30738966E+002
 -0.17325092E+002
  0.26389535E+002
  0.43494309E+001
  0.18298592E+002
  0.80909427E+001
  0.25846231E+002
 -0.75476388E+001
  0.31963509E+002
 -0.61172780E+001
  0.31963509E+002
  0.00000000E+000
 -0.10291981E+003
  0.00000000E+000
  0.58983824E+002
  0.00000000E+000
  0.26728082E+002
  0.00000000E+000
  0.37940258E+001
  0.00000000E+000
 -0.17325092E+002
  0.00000000E+000
  0.43494309E+001
  0.00000000E+000
  0.80909427E+001
  0.00000000E+000
 -0.75476388E+001
  0.00000000E+000
 -0.61172780E+001
  0.31963509E+002
  0.17096551E+001
 -0.10462946E+003
  0.31067019E+001
  0.57586777E+002
  0.24927074E+001
  0.27342076E+002
  0.23370999E+001
  0.39496333E+001
  0.22818014E+001
 -0.17269794E+002
  0.23409760E+001
  0.42902563E+001
  0.26566937E+001
  0.77752249E+001
  0.31734480E+001
 -0.80643931E+001
  0.28557145E+001
 -0.57995444E+001
  0.34819224E+002
  0.17082589E+001
 -0.10633772E+003
  0.12087118E+001
  0.58086324E+002
 -0.31112151E+000
  0.28861910E+002
  0.16277567E+001
  0.20107551E+001
  0.29028194E+001
 -0.18544857E+002
  0.23997147E+001
  0.47933610E+001
  0.13838248E+001
  0.87911149E+001
  0.21721157E+001
 -0.88526840E+001
  0.26324904E+001
 -0.62599192E+001
  0.37451714E+002
  0.16945995E+001
 -0.10803232E+003
  0.11167614E+001
  0.58664163E+002
 -0.21576702E+000
  0.30194438E+002
  0.18056585E+001
 -0.10670450E-001
  0.29318999E+001
 -0.19671098E+002
  0.24598582E+001
  0.52654027E+001
  0.14667449E+001
  0.97842282E+001
  0.22233265E+001
 -0.96092657E+001
  0.26368646E+001
 -0.66734573E+001
  0.40088579E+002
  0.16738695E+001
 -0.10970619E+003
  0.10559739E+001
  0.59282058E+002
 -0.68864955E-001
  0.31319277E+002
  0.20128938E+001
 -0.20924292E+001
  0.29845200E+001
 -0.20642724E+002
  0.25227422E+001
  0.57271805E+001
  0.15689689E+001
  0.10738002E+002
  0.23070838E+001
 -0.10347381E+002
  0.26511064E+001
 -0.70174799E+001
  0.42739685E+002
  0.14215351E+001
 -0.11112772E+003
  0.97397706E+000
  0.59729616E+002
  0.74948997E-001
  0.32218305E+002
  0.22549003E+001
 -0.42723805E+001
  0.30791959E+001
 -0.21467020E+002
  0.25802173E+001
  0.62261591E+001
  0.16498703E+001
  0.11668348E+002
  0.23827144E+001
 -0.11080225E+002
  0.26618184E+001
 -0.72965839E+001
  0.45401503E+002
  0.13129184E+001
 -0.11244064E+003
  0.10064808E+001
  0.60036054E+002
  0.37671376E+000
  0.32848072E+002
  0.24961762E+001
 -0.63918429E+001
  0.30924531E+001
 -0.22063297E+002
  0.26212969E+001
  0.66973153E+001
  0.18018780E+001
  0.12487767E+002
  0.25279887E+001
 -0.11806335E+002
  0.26814057E+001
 -0.74500009E+001
  0.48082909E+002
  0.12841358E+001
 -0.11372478E+003
  0.10218390E+001
  0.60298351E+002
  0.66857243E+000
  0.33201339E+002
  0.27242815E+001
 -0.84475520E+001
  0.31058736E+001
 -0.22444889E+002
  0.26295671E+001
  0.71736217E+001
  0.19304997E+001
  0.13186835E+002
  0.26616870E+001
 -0.12537523E+002
  0.26972408E+001
 -0.74855547E+001
  0.50780150E+002
  0.11519653E+001
 -0.11487674E+003
  0.10830052E+001
  0.60367311E+002
  0.10138338E+001
  0.33270510E+002
  0.29061155E+001
 -0.10339834E+002
  0.30168516E+001
 -0.22555625E+002
  0.25732902E+001
  0.76171830E+001
  0.20742879E+001
  0.13685837E+002
  0.28322246E+001
 -0.13295459E+002
  0.27283583E+001
 -0.73816885E+001
  0.53508508E+002
  0.62716214E+000
 -0.11550391E+003
  0.10896381E+001
  0.59904835E+002
  0.13834750E+001
  0.32976673E+002
  0.30181911E+001
 -0.11974550E+002
  0.27747242E+001
 -0.22312158E+002
  0.24218867E+001
  0.79700206E+001
  0.21885717E+001
  0.13919152E+002
  0.29364170E+001
 -0.14043304E+002
  0.26655115E+001
 -0.71107830E+001
  0.56174020E+002
 -0.28959937E+001
 -0.11260791E+003
 -0.48009835E+000
  0.57488939E+002
  0.10877219E+001
  0.31408853E+002
  0.19778335E+001
 -0.12864662E+002
  0.71827404E+000
 -0.21052598E+002
  0.73400206E+000
  0.79542925E+001
  0.12293416E+001
  0.13423813E+002
  0.15715189E+001
 -0.14385482E+002
  0.92866735E+000
 -0.64679314E+001
  0.57102687E+002
 -0.12602314E+002
 -0.10000560E+003
 -0.52290479E+001
  0.50115674E+002
 -0.75883078E+000
  0.26938636E+002
 -0.15209807E+001
 -0.12102512E+002
 -0.48403114E+001
 -0.17733268E+002
 -0.39698689E+001
  0.70838501E+001
 -0.20334040E+001
  0.11487348E+002
 -0.30433522E+001
 -0.13375534E+002
 -0.43170140E+001
 -0.51942696E+001
  0.52785673E+002
 -0.19765346E+002
 -0.80240252E+002
 -0.88862138E+001
  0.39236541E+002
 -0.26267096E+001
  0.20679132E+002
 -0.48235155E+001
 -0.99057057E+001
 -0.93638934E+001
 -0.13192890E+002
 -0.78432373E+001
  0.55631940E+001
 -0.49671768E+001
  0.86112870E+001
 -0.71011572E+001
 -0.11241553E+002
 -0.86556926E+001
 -0.36397342E+001
  0.44129981E+002
 -0.22240400E+002
 -0.57999852E+002
 -0.10510455E+002
  0.27506596E+002
 -0.39498849E+001
  0.14118562E+002
 -0.68456066E+001
 -0.70099840E+001
 -0.11448451E+002
 -0.85900453E+001
 -0.96926403E+001
  0.38073832E+001
 -0.66721349E+001
  0.55907816E+001
 -0.94491412E+001
 -0.84645468E+001
 -0.10904937E+002
 -0.21839384E+001
  0.33225043E+002
 -0.22238158E+002
 -0.35761694E+002
 -0.11071798E+002
  0.16340236E+002
 -0.50772428E+001
  0.81240071E+001
 -0.80530541E+001
 -0.40341727E+001
 -0.12045193E+002
 -0.45979064E+001
 -0.10367287E+002
  0.21294770E+001
 -0.77188607E+001
  0.29423555E+001
 -0.10764720E+002
 -0.54186876E+001
 -0.11897044E+002
 -0.10516144E+001
  0.21328000E+002
 -0.19801747E+002
 -0.15959946E+002
 -0.10431548E+002
  0.69700364E+001
 -0.56400549E+001
  0.33325139E+001
 -0.81041948E+001
 -0.15700328E+001
 -0.11011162E+002
 -0.16909396E+001
 -0.96864267E+001
  0.80474206E+000
 -0.77734533E+001
  0.10293821E+001
 -0.10713530E+002
 -0.24786105E+001
 -0.11444404E+002
 -0.32074043E+000
  0.98835952E+001
 -0.12734296E+002
 -0.32256505E+001
 -0.70919756E+001
  0.13277161E+001
 -0.43707978E+001
  0.61133605E+000
 -0.56838027E+001
 -0.25702784E+000
 -0.71110926E+001
 -0.26364967E+000
 -0.64318326E+001
  0.12548201E+000
 -0.55503317E+001
  0.14788120E+000
 -0.75239556E+001
 -0.50498659E+000
 -0.78048641E+001
 -0.39831881E-001
  0.20787311E+001
 -0.31878192E+001
 -0.37831218E-001
 -0.18745597E+001
  0.14456477E-001
 -0.12697514E+001
  0.65277625E-002
 -0.15248765E+001
 -0.19027177E-002
 -0.17864326E+001
 -0.20935815E-002
 -0.16619089E+001
  0.95830135E-003
 -0.15148379E+001
  0.81028700E-003
 -0.20138719E+001
 -0.59526030E-002
 -0.20534908E+001
 -0.21301071E-003
  0.25240302E-001
 -0.37831218E-001
 -0.00000000E+000
 -0.00000000E+000
 -0.23374740E-001
 -0.00000000E+000
 -0.00000000E+000
 -0.16846978E-001
 -0.00000000E+000
 -0.00000000E+000
 -0.18749696E-001
 -0.00000000E+000
 -0.00000000E+000
 -0.20843277E-001
 -0.00000000E+000
 -0.00000000E+000
 -0.19884976E-001
 -0.00000000E+000
 -0.00000000E+000
 -0.19074689E-001
 -0.00000000E+000
 -0.00000000E+000
 -0.25027292E-001
 -0.00000000E+000
 -0.00000000E+000
 -0.25240302E-001
 -0.00000000E+000
 -0.00000000E+000
  0.00000000E+000
  0.62699896E+002
 -0.62699896E+002
  0.11167302E+003
 -0.48973120E+002
  0.88862113E+002
  0.22810904E+002
  0.97879493E+002
 -0.90173801E+001
  0.10616282E+003
 -0.82833273E+001
  0.10793698E+003
 -0.17741625E+001
  0.10265607E+003
  0.52809114E+001
  0.11620776E+003
 -0.13551693E+002
  0.33801354E+002
  0.82406411E+002
  0.33801354E+002
  0.00000000E+000
 -0.62699896E+002
  0.00000000E+000
 -0.48973120E+002
  0.00000000E+000
  0.22810904E+002
  0.00000000E+000
 -0.90173801E+001
  0.00000000E+000
 -0.82833273E+001
  0.00000000E+000
 -0.17741625E+001
  0.00000000E+000
  0.52809114E+001
  0.00000000E+000
 -0.13551693E+002
  0.00000000E+000
  0.82406411E+002
  0.33801354E+002
 -0.12202054E+001
 -0.61479691E+002
 -0.14026789E+001
 -0.48790647E+002
 -0.12880058E+001
  0.22696230E+002
 -0.15870742E+001
 -0.87183116E+001
 -0.15329825E+001
 -0.83374190E+001
 -0.13148746E+001
 -0.19922705E+001
 -0.11065152E+001
  0.50725520E+001
 -0.14715011E+001
 -0.13186708E+002
 -0.48499889E+000
  0.81419909E+002
  0.33316355E+002
 -0.13108030E+001
 -0.60168888E+002
 -0.17273197E+001
 -0.48374130E+002
 -0.26762855E+001
  0.23645196E+002
 -0.19055913E+001
 -0.94890058E+001
 -0.62464812E+000
 -0.96183622E+001
 -0.10214519E+001
 -0.15954667E+001
 -0.16515307E+001
  0.57026308E+001
 -0.17558110E+001
 -0.13082427E+002
 -0.46144438E+000
  0.80125542E+002
  0.32854911E+002
 -0.13644040E+001
 -0.58804484E+002
 -0.17435420E+001
 -0.47994992E+002
 -0.26429850E+001
  0.24544639E+002
 -0.18159671E+001
 -0.10316024E+002
 -0.55119985E+000
 -0.10883129E+002
 -0.10494785E+001
 -0.10971881E+001
 -0.20005640E+001
  0.66537164E+001
 -0.17455463E+001
 -0.13337445E+002
 -0.47520183E+000
  0.78855198E+002
  0.32379709E+002
 -0.13898846E+001
 -0.57414600E+002
 -0.17889428E+001
 -0.47595934E+002
 -0.25843091E+001
  0.25340006E+002
 -0.17456412E+001
 -0.11154692E+002
 -0.51995052E+000
 -0.12108820E+002
 -0.11027743E+001
 -0.51436433E+000
 -0.20289421E+001
  0.75798842E+001
 -0.17202699E+001
 -0.13646117E+002
 -0.54725414E+000
  0.77682182E+002
  0.31832455E+002
 -0.14186744E+001
 -0.55995925E+002
 -0.18271392E+001
 -0.47187469E+002
 -0.25183082E+001
  0.26031175E+002
 -0.16729732E+001
 -0.12000027E+002
 -0.52770097E+000
 -0.13254092E+002
 -0.11788652E+001
  0.13679992E+000
 -0.20471715E+001
  0.84481906E+001
 -0.17569523E+001
 -0.13936337E+002
 -0.60881164E+000
  0.76534041E+002
  0.31223643E+002
 -0.14206875E+001
 -0.54575238E+002
 -0.18193734E+001
 -0.46788783E+002
 -0.23913858E+001
  0.26603187E+002
 -0.16298284E+001
 -0.12761584E+002
 -0.63926223E+000
 -0.14244659E+002
 -0.12668876E+001
  0.76442524E+000
 -0.19921328E+001
  0.91734358E+001
 -0.17087849E+001
 -0.14219684E+002
 -0.60742859E+000
  0.75432685E+002
  0.30616215E+002
 -0.14506000E+001
 -0.53124638E+002
 -0.18184543E+001
 -0.46420929E+002
 -0.22574240E+001
  0.27042157E+002
 -0.15816356E+001
 -0.13437372E+002
 -0.74850386E+000
 -0.15077790E+002
 -0.15677516E+001
  0.15836730E+001
 -0.19600528E+001
  0.95657370E+001
 -0.16559344E+001
 -0.14523803E+002
 -0.60607043E+000
  0.74382821E+002
  0.30010144E+002
 -0.14771720E+001
 -0.51647466E+002
 -0.18073547E+001
 -0.46090746E+002
 -0.20989389E+001
  0.27333741E+002
 -0.15466766E+001
 -0.13989635E+002
 -0.88625950E+000
 -0.15738207E+002
 -0.17799275E+001
  0.24773410E+001
 -0.19260392E+001
  0.97118486E+001
 -0.15893747E+001
 -0.14860467E+002
 -0.60316145E+000
  0.73396608E+002
  0.29406983E+002
 -0.15138546E+001
 -0.50133611E+002
 -0.19359266E+001
 -0.45668674E+002
 -0.20075771E+001
  0.27405391E+002
 -0.16190547E+001
 -0.14378157E+002
 -0.11653775E+001
 -0.16191885E+002
 -0.20317160E+001
  0.33436796E+001
 -0.20053873E+001
  0.96855198E+001
 -0.16678422E+001
 -0.15198012E+002
 -0.64603767E+000
  0.72374803E+002
  0.28760945E+002
 -0.30068415E+001
 -0.47126770E+002
 -0.47207272E+001
 -0.43954788E+002
 -0.37978442E+001
  0.26482508E+002
 -0.40482626E+001
 -0.14127739E+002
 -0.43459059E+001
 -0.15894241E+002
 -0.49767692E+001
  0.39745430E+001
 -0.44853409E+001
  0.91940915E+001
 -0.45649217E+001
 -0.15118432E+002
 -0.14880132E+001
  0.69297894E+002
  0.27272932E+002
 -0.68188349E+001
 -0.40307935E+002
 -0.12197779E+002
 -0.38575845E+002
 -0.88416361E+001
  0.23126366E+002
 -0.10544737E+002
 -0.12424638E+002
 -0.12610496E+002
 -0.13828482E+002
 -0.12536655E+002
  0.39007012E+001
 -0.11121388E+002
  0.77788247E+001
 -0.12527415E+002
 -0.13712404E+002
 -0.37148458E+001
  0.60485325E+002
  0.23558086E+002
 -0.91277294E+001
 -0.31180205E+002
 -0.17022088E+002
 -0.30681486E+002
 -0.12027814E+002
  0.18132092E+002
 -0.14779134E+002
 -0.96733181E+001
 -0.17931352E+002
 -0.10676264E+002
 -0.17347197E+002
  0.33165460E+001
 -0.15364989E+002
  0.57966173E+001
 -0.17791989E+002
 -0.11285405E+002
 -0.51326887E+001
  0.47826025E+002
  0.18425397E+002
 -0.94285308E+001
 -0.21751674E+002
 -0.18113224E+002
 -0.21996792E+002
 -0.12637587E+002
  0.12656455E+002
 -0.15700499E+002
 -0.66104064E+001
 -0.19124492E+002
 -0.72522709E+001
 -0.18240085E+002
  0.24321392E+001
 -0.16208555E+002
  0.37650876E+001
 -0.19134557E+002
 -0.83594026E+001
 -0.54301888E+001
  0.34121657E+002
  0.12995209E+002
 -0.88111280E+001
 -0.12940546E+002
 -0.17364621E+002
 -0.13443300E+002
 -0.12134860E+002
  0.74266936E+001
 -0.15020160E+002
 -0.37251056E+001
 -0.18202912E+002
 -0.40695191E+001
 -0.17222675E+002
  0.14519017E+001
 -0.15451635E+002
  0.19940483E+001
 -0.18533877E+002
 -0.52771613E+001
 -0.51786026E+001
  0.20766383E+002
  0.78166061E+001
 -0.73888130E+001
 -0.55517334E+001
 -0.14859403E+002
 -0.59727103E+001
 -0.10531808E+002
  0.30990986E+001
 -0.12815353E+002
 -0.14415602E+001
 -0.15308397E+002
 -0.15764755E+001
 -0.14442329E+002
  0.58583389E+000
 -0.13152417E+002
  0.70413672E+000
 -0.16048524E+002
 -0.23810543E+001
 -0.44178333E+001
  0.91356917E+001
  0.33987728E+001
 -0.44720828E+001
 -0.10796506E+001
 -0.92379513E+001
 -0.12068418E+001
 -0.67130300E+001
  0.57417728E+000