# vtk DataFile Version 2.0

ASCII
 
DATASET POLYDATA
POINTS 130 double
  0.13839604E+000  0.29997315E-001  0.11318127E+003
 -0.20096863E+002 -0.40612358E+001  0.10109884E+003
 -0.34336158E+002 -0.69682053E+001  0.88892019E+002
 -0.46122252E+002 -0.94131768E+001  0.76568589E+002
 -0.52036362E+002 -0.10650057E+002  0.64313886E+002
 -0.52043889E+002 -0.10661005E+002  0.52070906E+002
 -0.46130412E+002 -0.94368229E+001  0.39818224E+002
 -0.34338767E+002 -0.69710972E+001  0.27486582E+002
 -0.20145112E+002 -0.40716318E+001  0.15240185E+002
  0.18812973E-003  0.51327458E-004  0.30001700E+001
 -0.42723400E+001 -0.86118356E+000  0.11314656E+003
 -0.20983757E+002  0.26095960E+000  0.10109831E+003
 -0.34969097E+002 -0.39367079E+001  0.88895262E+002
 -0.46606753E+002 -0.70059843E+001  0.76565078E+002
 -0.52468763E+002 -0.84361129E+001  0.64311255E+002
 -0.52484206E+002 -0.84039179E+001  0.52072758E+002
 -0.46625514E+002 -0.68841014E+001  0.39816205E+002
 -0.35000520E+002 -0.36100052E+001  0.27488993E+002
 -0.21022785E+002  0.34194799E+000  0.15241650E+002
 -0.88579171E+000  0.44119712E+001  0.30018650E+001
 -0.41158193E+001 -0.78698458E+000  0.11314148E+003
 -0.20810197E+002  0.64097974E+000  0.10112170E+003
 -0.34876515E+002 -0.33040559E+001  0.88908708E+002
 -0.46572661E+002 -0.61642727E+001  0.76576422E+002
 -0.52464321E+002 -0.74890234E+001  0.64315890E+002
 -0.52478527E+002 -0.74566445E+001  0.52068785E+002
 -0.46587265E+002 -0.60424804E+001  0.39806519E+002
 -0.34899860E+002 -0.29776136E+001  0.27477439E+002
 -0.20848799E+002  0.72279185E+000  0.15236254E+002
 -0.63675508E+000  0.44261549E+001  0.30100926E+001
 -0.39833707E+001 -0.71472878E+000  0.11314274E+003
 -0.20636399E+002  0.10240683E+001  0.10111447E+003
 -0.34768378E+002 -0.26569581E+001  0.88881248E+002
 -0.46540617E+002 -0.52959309E+001  0.76562202E+002
 -0.52472813E+002 -0.65065732E+001  0.64299943E+002
 -0.52486436E+002 -0.64718745E+001  0.52044930E+002
 -0.46555406E+002 -0.51710262E+001  0.39781166E+002
 -0.34790282E+002 -0.23320549E+001  0.27465862E+002
 -0.20667725E+002  0.11070300E+001  0.15232378E+002
 -0.38779814E+000  0.44385657E+001  0.30146146E+001
 -0.38476657E+001 -0.64130401E+000  0.11314408E+003
 -0.20453024E+002  0.14056517E+001  0.10110193E+003
 -0.34644653E+002 -0.20110211E+001  0.88853149E+002
 -0.46488268E+002 -0.44272927E+001  0.76548341E+002
 -0.52454986E+002 -0.55236754E+001  0.64285346E+002
 -0.52466388E+002 -0.54869378E+001  0.52024148E+002
 -0.46500555E+002 -0.42994022E+001  0.39760055E+002
 -0.34665027E+002 -0.16867361E+001  0.27458572E+002
 -0.20477123E+002  0.14897963E+001  0.15229483E+002
 -0.13852679E+000  0.44493825E+001  0.30175297E+001
 -0.37085146E+001 -0.56591045E+000  0.11314514E+003
 -0.20258233E+002  0.17851620E+001  0.10107871E+003
 -0.34504547E+002 -0.13668433E+001  0.88823867E+002
 -0.46410331E+002 -0.35596727E+001  0.76532270E+002
 -0.52404422E+002 -0.45417870E+001  0.64270268E+002
 -0.52413946E+002 -0.45031518E+001  0.52007549E+002
 -0.46419772E+002 -0.34287157E+001  0.39745233E+002
 -0.34522692E+002 -0.10426256E+001  0.27456453E+002
 -0.20281623E+002  0.18705621E+001  0.15224063E+002
  0.11124408E+000  0.44588146E+001  0.30203539E+001
 -0.35655268E+001 -0.48937218E+000  0.11314671E+003
 -0.20071720E+002  0.21630309E+001  0.10107493E+003
 -0.34348936E+002 -0.72456090E+000  0.88794643E+002
 -0.46307756E+002 -0.26937539E+001  0.76514345E+002
 -0.52321294E+002 -0.35620882E+001  0.64255425E+002
 -0.52329057E+002 -0.35217504E+001  0.51994847E+002
 -0.46314535E+002 -0.25597824E+001  0.39736158E+002
 -0.34364511E+002 -0.39986446E+000  0.27458440E+002
 -0.20084318E+002  0.22499875E+001  0.15211859E+002
  0.36161997E+000  0.44669919E+001  0.30229330E+001
 -0.34184583E+001 -0.41170780E+000  0.11314872E+003
 -0.19858946E+002  0.25405972E+001  0.10104482E+003
 -0.34178156E+002 -0.84470243E-001  0.88766024E+002
 -0.46180388E+002 -0.18303641E+001  0.76494735E+002
 -0.52205736E+002 -0.25858811E+001  0.64240657E+002
 -0.52211869E+002 -0.25440925E+001  0.51986515E+002
 -0.46184987E+002 -0.16935214E+001  0.39732800E+002
 -0.34190987E+002  0.24108598E+000  0.27464139E+002
 -0.19866930E+002  0.26285918E+001  0.15215178E+002
  0.61265635E+000  0.44740121E+001  0.30250836E+001
 -0.32670536E+001 -0.33300614E+000  0.11315095E+003
 -0.19637969E+002  0.29167414E+001  0.10101549E+003
 -0.33993488E+002  0.55347628E+000  0.88739581E+002
 -0.46035450E+002 -0.96977027E+000  0.76477414E+002
 -0.52061209E+002 -0.16138494E+001  0.64226811E+002
 -0.52065643E+002 -0.15709102E+001  0.51982133E+002
 -0.46037591E+002 -0.83037997E+000  0.39732016E+002
 -0.34003349E+002  0.88002536E+000  0.27472363E+002
 -0.19641776E+002  0.30055460E+001  0.15217948E+002
  0.86465233E+000  0.44801268E+001  0.30261848E+001
 -0.31111295E+001 -0.25339553E+000  0.11315300E+003
 -0.19408211E+002  0.32911968E+001  0.10098945E+003
 -0.33795841E+002  0.11892309E+001  0.88716537E+002
 -0.45869930E+002 -0.11204008E+000  0.76461322E+002
 -0.51904270E+002 -0.64545666E+000  0.64217312E+002
 -0.51906435E+002 -0.60182114E+000  0.51978418E+002
 -0.45870424E+002  0.29534984E-001  0.39734595E+002
 -0.33802916E+002  0.15168062E+001  0.27481569E+002
 -0.19409414E+002  0.33808126E+001  0.15221361E+002
  0.11168566E+001  0.44848412E+001  0.30275799E+001
 -0.29504054E+001 -0.17313960E+000  0.11315415E+003
 -0.19170674E+002  0.36644090E+001  0.10096772E+003
 -0.33585537E+002  0.18226687E+001  0.88697859E+002
 -0.45681714E+002  0.74238738E+000  0.76446142E+002
 -0.51728682E+002  0.31966804E+000  0.64210614E+002
 -0.51728956E+002  0.36352959E+000  0.51977154E+002
 -0.45682276E+002  0.88581652E+000  0.39741127E+002
 -0.33591068E+002  0.21512771E+001  0.27491011E+002
 -0.19169972E+002  0.37538850E+001  0.15224178E+002
  0.13692449E+001  0.44880362E+001  0.30293714E+001
 -0.27845771E+001 -0.92419185E-001  0.11315420E+003
 -0.18926637E+002  0.40348308E+001  0.10092953E+003
 -0.33367111E+002  0.24541074E+001  0.88687203E+002
 -0.45477942E+002  0.15934808E+001  0.76435224E+002
 -0.51528192E+002  0.12808723E+001  0.64204687E+002
 -0.51527450E+002  0.13246575E+001  0.51979910E+002
 -0.45478799E+002  0.17382233E+001  0.39748231E+002
 -0.33384996E+002  0.27850743E+001  0.27480994E+002
 -0.18924066E+002  0.41254714E+001  0.15234902E+002
  0.16216129E+001  0.44900686E+001  0.30304285E+001
 -0.26145744E+001 -0.11473241E-001  0.11315365E+003
 -0.18676074E+002  0.44056983E+001  0.10091509E+003
 -0.33156251E+002  0.30864963E+001  0.88700204E+002
 -0.45260963E+002  0.24423003E+001  0.76428310E+002
 -0.51315645E+002  0.22394970E+001  0.64201846E+002
 -0.51313837E+002  0.22831253E+001  0.51982217E+002
 -0.45260469E+002  0.25874576E+001  0.39754205E+002
 -0.33160067E+002  0.34161839E+001  0.27477261E+002
 -0.18671229E+002  0.44950991E+001  0.15241788E+002
  0.18738680E+001  0.44906490E+001  0.30317427E+001
  
POLYGONS 108 540
      4      0      1     11     10
      4      1      2     12     11
      4      2      3     13     12
      4      3      4     14     13
      4      4      5     15     14
      4      5      6     16     15
      4      6      7     17     16
      4      7      8     18     17
      4      8      9     19     18
      4     10     11     21     20
      4     11     12     22     21
      4     12     13     23     22
      4     13     14     24     23
      4     14     15     25     24
      4     15     16     26     25
      4     16     17     27     26
      4     17     18     28     27
      4     18     19     29     28
      4     20     21     31     30
      4     21     22     32     31
      4     22     23     33     32
      4     23     24     34     33
      4     24     25     35     34
      4     25     26     36     35
      4     26     27     37     36
      4     27     28     38     37
      4     28     29     39     38
      4     30     31     41     40
      4     31     32     42     41
      4     32     33     43     42
      4     33     34     44     43
      4     34     35     45     44
      4     35     36     46     45
      4     36     37     47     46
      4     37     38     48     47
      4     38     39     49     48
      4     40     41     51     50
      4     41     42     52     51
      4     42     43     53     52
      4     43     44     54     53
      4     44     45     55     54
      4     45     46     56     55
      4     46     47     57     56
      4     47     48     58     57
      4     48     49     59     58
      4     50     51     61     60
      4     51     52     62     61
      4     52     53     63     62
      4     53     54     64     63
      4     54     55     65     64
      4     55     56     66     65
      4     56     57     67     66
      4     57     58     68     67
      4     58     59     69     68
      4     60     61     71     70
      4     61     62     72     71
      4     62     63     73     72
      4     63     64     74     73
      4     64     65     75     74
      4     65     66     76     75
      4     66     67     77     76
      4     67     68     78     77
      4     68     69     79     78
      4     70     71     81     80
      4     71     72     82     81
      4     72     73     83     82
      4     73     74     84     83
      4     74     75     85     84
      4     75     76     86     85
      4     76     77     87     86
      4     77     78     88     87
      4     78     79     89     88
      4     80     81     91     90
      4     81     82     92     91
      4     82     83     93     92
      4     83     84     94     93
      4     84     85     95     94
      4     85     86     96     95
      4     86     87     97     96
      4     87     88     98     97
      4     88     89     99     98
      4     90     91    101    100
      4     91     92    102    101
      4     92     93    103    102
      4     93     94    104    103
      4     94     95    105    104
      4     95     96    106    105
      4     96     97    107    106
      4     97     98    108    107
      4     98     99    109    108
      4    100    101    111    110
      4    101    102    112    111
      4    102    103    113    112
      4    103    104    114    113
      4    104    105    115    114
      4    105    106    116    115
      4    106    107    117    116
      4    107    108    118    117
      4    108    109    119    118
      4    110    111    121    120
      4    111    112    122    121
      4    112    113    123    122
      4    113    114    124    123
      4    114    115    125    124
      4    115    116    126    125
      4    116    117    127    126
      4    117    118    128    127
      4    118    119    129    128
  
CELL_DATA 108
SCALARS Gamma double
LOOKUP_TABLE default
 -0.47668696E+001
 -0.16086770E+003
 -0.14257608E+003
 -0.12277577E+003
 -0.11806227E+003
 -0.11191614E+003
 -0.12091540E+003
 -0.15080034E+003
 -0.71389463E+002
 -0.47668696E+001
 -0.16086770E+003
 -0.14257608E+003
 -0.12277577E+003
 -0.11806227E+003
 -0.11191614E+003
 -0.12091540E+003
 -0.15080034E+003
 -0.71389463E+002
 -0.51494908E+001
 -0.16153997E+003
 -0.14340084E+003
 -0.12383816E+003
 -0.11906972E+003
 -0.11311480E+003
 -0.12183001E+003
 -0.15165461E+003
 -0.73803696E+002
 -0.51346537E+001
 -0.15665929E+003
 -0.13846815E+003
 -0.12263195E+003
 -0.11920674E+003
 -0.11390880E+003
 -0.12094731E+003
 -0.14870566E+003
 -0.73654135E+002
 -0.46587266E+001
 -0.13835549E+003
 -0.12171970E+003
 -0.11050393E+003
 -0.10856606E+003
 -0.10380919E+003
 -0.10921629E+003
 -0.13273300E+003
 -0.66919081E+002
 -0.38266154E+001
 -0.11048758E+003
 -0.96801330E+002
 -0.90032760E+002
 -0.89688879E+002
 -0.85493586E+002
 -0.89374969E+002
 -0.10715760E+003
 -0.54436325E+002
 -0.28342566E+001
 -0.79388323E+002
 -0.69385444E+002
 -0.66057483E+002
 -0.66650169E+002
 -0.63428619E+002
 -0.65857825E+002
 -0.77955958E+002
 -0.39714610E+002
 -0.17915563E+001
 -0.48619196E+002
 -0.42402214E+002
 -0.41280658E+002
 -0.42145739E+002
 -0.40220134E+002
 -0.41313394E+002
 -0.48317845E+002
 -0.24714688E+002
 -0.81856091E+000
 -0.21541708E+002
 -0.18744617E+002
 -0.18631326E+002
 -0.19216129E+002
 -0.18418026E+002
 -0.18723285E+002
 -0.21655029E+002
 -0.11135103E+002
 -0.16983547E+000
 -0.43158211E+001
 -0.37588562E+001
 -0.38076947E+001
 -0.39630860E+001
 -0.38217750E+001
 -0.38456670E+001
 -0.43977668E+001
 -0.22764939E+001
 -0.20358333E-002
 -0.50129804E-001
 -0.43769850E-001
 -0.45116199E-001
 -0.47341231E-001
 -0.45934438E-001
 -0.45782683E-001
 -0.51804677E-001
 -0.27059359E-001
 -0.00000000E+000
 -0.00000000E+000
 -0.00000000E+000
 -0.00000000E+000
 -0.00000000E+000
 -0.00000000E+000
 -0.00000000E+000
 -0.00000000E+000
 -0.00000000E+000
POINT_DATA 130
VECTORS Uconv double
  0.00000000E+000  0.00000000E+000  0.00000000E+000
  0.00000000E+000  0.00000000E+000  0.00000000E+000
  0.00000000E+000  0.00000000E+000  0.00000000E+000
  0.00000000E+000  0.00000000E+000  0.00000000E+000
  0.00000000E+000  0.00000000E+000  0.00000000E+000
  0.00000000E+000  0.00000000E+000  0.00000000E+000
  0.00000000E+000  0.00000000E+000  0.00000000E+000
  0.00000000E+000  0.00000000E+000  0.00000000E+000
  0.00000000E+000  0.00000000E+000  0.00000000E+000
  0.00000000E+000  0.00000000E+000  0.00000000E+000
  0.00000000E+000  0.00000000E+000  0.00000000E+000
  0.00000000E+000  0.00000000E+000  0.00000000E+000
  0.00000000E+000  0.00000000E+000  0.00000000E+000
  0.00000000E+000  0.00000000E+000  0.00000000E+000
  0.00000000E+000  0.00000000E+000  0.00000000E+000
  0.00000000E+000  0.00000000E+000  0.00000000E+000
  0.00000000E+000  0.00000000E+000  0.00000000E+000
  0.00000000E+000  0.00000000E+000  0.00000000E+000
  0.00000000E+000  0.00000000E+000  0.00000000E+000
  0.00000000E+000  0.00000000E+000  0.00000000E+000
  0.17133841E+002 -0.28890569E+000 -0.50787265E+000
  0.16545696E+002  0.21276427E+000  0.23388766E+001
  0.15781430E+002  0.21913972E+000  0.13445541E+001
  0.15271439E+002  0.11492287E+000  0.11343906E+001
  0.14787456E+002  0.71555971E-001  0.46351014E+000
  0.14852896E+002  0.62666152E-001 -0.39735649E+000
  0.15467611E+002  0.74054841E-001 -0.96858212E+000
  0.16000411E+002  0.14180956E+000 -0.11554033E+001
  0.16441846E+002  0.22617377E+000 -0.53965693E+000
  0.16942971E+002 -0.10544715E+000  0.82276573E+000
  0.17127088E+002 -0.28807267E+000 -0.51956562E+000
  0.16619555E+002  0.16197458E+000  0.23430209E+001
  0.15937012E+002  0.18942058E+000  0.11906182E+001
  0.15397978E+002  0.11594854E+000  0.10479893E+001
  0.14817721E+002  0.87670638E-001  0.44774371E+000
  0.14874935E+002  0.80005084E-001 -0.39177098E+000
  0.15574174E+002  0.79390361E-001 -0.90063557E+000
  0.16133786E+002  0.12447294E+000 -0.10244331E+001
  0.16533265E+002  0.19026285E+000 -0.41457810E+000
  0.16932865E+002 -0.12080703E+000  0.86215514E+000
  0.17120375E+002 -0.28784637E+000 -0.53362973E+000
  0.16646615E+002  0.11773467E+000  0.22425279E+001
  0.16120387E+002  0.14839274E+000  0.10089469E+001
  0.15621334E+002  0.10473570E+000  0.90269808E+000
  0.15013558E+002  0.94357185E-001  0.39989116E+000
  0.15059094E+002  0.88172808E-001 -0.35799684E+000
  0.15766134E+002  0.72860950E-001 -0.78332445E+000
  0.16286835E+002  0.98731604E-001 -0.86181831E+000
  0.16640280E+002  0.13801299E+000 -0.39248179E+000
  0.16922062E+002 -0.13619312E+000  0.90746820E+000
  0.17113330E+002 -0.28769846E+000 -0.54818340E+000
  0.16799320E+002  0.48205155E-001  0.15720277E+001
  0.16324557E+002  0.96389421E-001  0.80615087E+000
  0.15932343E+002  0.75199219E-001  0.70337603E+000
  0.15385646E+002  0.79854255E-001  0.31920322E+000
  0.15414865E+002  0.76079400E-001 -0.29273400E+000
  0.16038267E+002  0.51749889E-001 -0.61650226E+000
  0.16458048E+002  0.63141270E-001 -0.69016304E+000
  0.16728481E+002  0.97501790E-001 -0.31376497E+000
  0.16910462E+002 -0.14978122E+000  0.95339953E+000
  0.17105953E+002 -0.28759175E+000 -0.56308134E+000
  0.16425580E+002  0.45516781E-002  0.17578578E+001
  0.16541582E+002  0.35613637E-001  0.58946803E+000
  0.16307839E+002  0.26726784E-001  0.46255849E+000
  0.15906724E+002  0.36655693E-001  0.21070838E+000
  0.15916572E+002  0.36377837E-001 -0.19895416E+000
  0.16368957E+002  0.13305295E-001 -0.41329083E+000
  0.16639708E+002  0.19534904E-001 -0.50684985E+000
  0.16415795E+002  0.54114037E-001 -0.71369999E+000
  0.16898042E+002 -0.16161950E+000  0.99948031E+000
  0.17098192E+002 -0.28748024E+000 -0.57848282E+000
  0.16511676E+002 -0.37768988E-001  0.13871665E+001
  0.16763231E+002 -0.31610445E-001  0.36696245E+000
  0.16713651E+002 -0.38525540E-001  0.19964247E+000
  0.16515395E+002 -0.36680747E-001  0.85151815E-001
  0.16503499E+002 -0.33344536E-001 -0.85077142E-001
  0.16725693E+002 -0.39271338E-001 -0.19021507E+000
  0.16826031E+002 -0.30761204E-001 -0.31771674E+000
  0.16517595E+002  0.25800191E-001 -0.62612337E+000
  0.16884772E+002 -0.17172888E+000  0.10451594E+001
  0.17090489E+002 -0.28820446E+000 -0.59680560E+000
  0.16587355E+002 -0.70689239E-001  0.10405461E+001
  0.16982111E+002 -0.10209405E+000  0.14554777E+000
  0.16629650E+002 -0.10530234E+000  0.16970919E+000
  0.17130491E+002 -0.13123609E+000 -0.38340325E-001
  0.17100246E+002 -0.12365523E+000  0.40524518E-001
  0.16665145E+002 -0.98596935E-001 -0.16564213E+000
  0.17011744E+002 -0.85741872E-001 -0.12770815E+000
  0.16610712E+002 -0.22174532E-002 -0.55438839E+000
  0.16870632E+002 -0.18000338E+000  0.10897874E+001
  0.17081722E+002 -0.28786027E+000 -0.61274815E+000
  0.16654141E+002 -0.10197759E+000  0.70933590E+000
  0.17191935E+002 -0.17296703E+000 -0.68596762E-001
  0.17067775E+002 -0.17264477E+000 -0.11148999E+000
  0.16761179E+002 -0.20976721E+000  0.89910745E-001
  0.16775172E+002 -0.20435499E+000 -0.81442069E-001
  0.17048041E+002 -0.15399979E+000  0.73439205E-001
  0.17192835E+002 -0.14341042E+000  0.58201369E-001
  0.16692020E+002 -0.27889741E-001 -0.44985225E+000
  0.16855587E+002 -0.18675820E+000  0.11326865E+001
  0.17072512E+002 -0.28763124E+000 -0.62929607E+000
  0.16700291E+002 -0.11912531E+000  0.38704678E+000
  0.17386228E+002 -0.24079876E+000 -0.25956966E+000
  0.17431991E+002 -0.23870441E+000 -0.35068053E+000
  0.17357108E+002 -0.28084159E+000 -0.46454710E-001
  0.17352441E+002 -0.27359153E+000  0.48401011E-001
  0.17364461E+002 -0.21085674E+000  0.27505391E+000
  0.17363956E+002 -0.20123356E+000  0.23632373E+000
  0.16765858E+002 -0.41898666E-001 -0.47467843E+000
  0.16839685E+002 -0.20213551E+000  0.12073778E+001
  0.17062581E+002 -0.28697785E+000 -0.64933011E+000
  0.16711194E+002 -0.21284868E+000 -0.10353083E+001
  0.17564302E+002 -0.30560347E+000 -0.44793836E+000
  0.17710092E+002 -0.29607848E+000 -0.53139189E+000
  0.17768702E+002 -0.34050471E+000 -0.14574616E+000
  0.17752613E+002 -0.33195890E+000  0.14595464E+000
  0.17605417E+002 -0.25790859E+000  0.42715794E+000
  0.17520865E+002 -0.24702534E+000  0.39902609E+000
  0.16839742E+002 -0.77633864E-001 -0.46752406E-001
  0.16822728E+002 -0.20330493E+000  0.12398227E+001
  0.17052446E+002 -0.28700542E+000 -0.66694841E+000
  0.16739308E+002 -0.16987916E+000 -0.99200149E+000
  0.17108739E+002 -0.26520364E+000  0.81577015E-001
  0.17903975E+002 -0.33780108E+000 -0.66474395E+000
  0.18007243E+002 -0.37657284E+000 -0.20780255E+000
  0.17985927E+002 -0.36777385E+000  0.20456088E+000
  0.17770093E+002 -0.29362909E+000  0.53516997E+000
  0.17128441E+002 -0.24123468E+000 -0.63248512E-001
  0.16896649E+002 -0.10164121E+000  0.44905193E-001
  0.16804847E+002 -0.20339369E+000  0.12697759E+001
