# vtk DataFile Version 2.0
Sgmt
ASCII
 
DATASET POLYDATA
POINTS 810 double
  0.51601470E-001  0.10240591E-001  0.11318169E+003
 -0.20371407E+002 -0.25897589E+001  0.10099928E+003
 -0.34757166E+002 -0.44307621E+001  0.88764379E+002
 -0.46760179E+002 -0.59793764E+001  0.76492864E+002
 -0.52770185E+002 -0.67587024E+001  0.64246796E+002
 -0.52772849E+002 -0.67622969E+001  0.52005012E+002
 -0.46762446E+002 -0.59905793E+001  0.39760378E+002
 -0.34761260E+002 -0.44348782E+001  0.27481910E+002
 -0.20387396E+002 -0.25942130E+001  0.15240756E+002
  0.17654499E-003  0.45762293E-004  0.30001281E+001
 -0.44122823E+001 -0.55860480E+000  0.11316917E+003
 -0.20937540E+002  0.17860205E+001  0.10100088E+003
 -0.35162296E+002 -0.13605103E+001  0.88769040E+002
 -0.47074141E+002 -0.35440621E+001  0.76493686E+002
 -0.53053159E+002 -0.45207455E+001  0.64246535E+002
 -0.53060249E+002 -0.44806909E+001  0.52004105E+002
 -0.47083001E+002 -0.34101246E+001  0.39756447E+002
 -0.35186211E+002 -0.10357197E+001  0.27482132E+002
 -0.20949941E+002  0.18704866E+001  0.15241121E+002
 -0.56636821E+000  0.44642396E+001  0.30005392E+001
 -0.42501409E+001 -0.47998056E+000  0.11316628E+003
 -0.20731814E+002  0.21632197E+001  0.10100775E+003
 -0.35013256E+002 -0.72638678E+000  0.88773012E+002
 -0.46964767E+002 -0.26950301E+001  0.76497400E+002
 -0.52963591E+002 -0.35637615E+001  0.64248279E+002
 -0.52969869E+002 -0.35236116E+001  0.52002459E+002
 -0.46971068E+002 -0.25610316E+001  0.39752835E+002
 -0.35031191E+002 -0.40130486E+000  0.27478209E+002
 -0.20743139E+002  0.22480485E+001  0.15239344E+002
 -0.31547560E+000  0.44728636E+001  0.30023660E+001
 -0.41028145E+001 -0.40230114E+000  0.11316879E+003
 -0.20521802E+002  0.25417549E+001  0.10099162E+003
 -0.34849658E+002 -0.84159139E-001  0.88751632E+002
 -0.46849888E+002 -0.18296999E+001  0.76485843E+002
 -0.52868712E+002 -0.25852197E+001  0.64237430E+002
 -0.52873360E+002 -0.25436709E+001  0.51990284E+002
 -0.46853948E+002 -0.16930165E+001  0.39741682E+002
 -0.34864335E+002  0.24140707E+000  0.27477162E+002
 -0.20529161E+002  0.26274540E+001  0.15238916E+002
 -0.63950533E-001  0.44802611E+001  0.30034934E+001
 -0.39511423E+001 -0.32357532E+000  0.11317157E+003
 -0.20302928E+002  0.29187291E+001  0.10097557E+003
 -0.34672200E+002  0.55606453E+000  0.88732507E+002
 -0.46712615E+002 -0.96690664E+000  0.76474437E+002
 -0.52745593E+002 -0.16100707E+001  0.64227608E+002
 -0.52748826E+002 -0.15673913E+001  0.51981641E+002
 -0.46715000E+002 -0.82776524E+000  0.39734821E+002
 -0.34683385E+002  0.88228705E+000  0.27478568E+002
 -0.20307179E+002  0.30052060E+001  0.15239353E+002
  0.18856790E+000  0.44866892E+001  0.30035845E+001
 -0.37949293E+001 -0.24394992E+000  0.11317415E+003
 -0.20075628E+002  0.32941872E+001  0.10096109E+003
 -0.34481561E+002  0.11941413E+001  0.88716637E+002
 -0.46554522E+002 -0.10707963E+000  0.76464195E+002
 -0.52598567E+002 -0.63856713E+000  0.64219372E+002
 -0.52600641E+002 -0.59508574E+000  0.51976232E+002
 -0.46555923E+002  0.34219947E-001  0.39731425E+002
 -0.34489522E+002  0.15211190E+001  0.27481280E+002
 -0.20077745E+002  0.33812818E+001  0.15240158E+002
  0.44132874E+000  0.44916598E+001  0.30039941E+001
 -0.36339020E+001 -0.16367430E+000  0.11317589E+003
 -0.19840079E+002  0.36680454E+001  0.10095015E+003
 -0.34277862E+002  0.18298572E+001  0.88704691E+002
 -0.46377294E+002  0.74945177E+000  0.76456325E+002
 -0.52430032E+002  0.32896477E+000  0.64213566E+002
 -0.52431324E+002  0.37283914E+000  0.51973574E+002
 -0.46378745E+002  0.89259497E+000  0.39730758E+002
 -0.34283852E+002  0.21576422E+001  0.27484275E+002
 -0.19841319E+002  0.37556378E+001  0.15241067E+002
  0.69430714E+000  0.44952360E+001  0.30042223E+001
 -0.34677454E+001 -0.82946820E-001  0.11317656E+003
 -0.19597071E+002  0.40402265E+001  0.10094343E+003
 -0.34062871E+002  0.24631340E+001  0.88697876E+002
 -0.46182020E+002  0.16023938E+001  0.76451291E+002
 -0.52241691E+002  0.12922404E+001  0.64210369E+002
 -0.52242528E+002  0.13361719E+001  0.51973168E+002
 -0.46183742E+002  0.17468427E+001  0.39732112E+002
 -0.34070376E+002  0.27919163E+001  0.27483060E+002
 -0.19597962E+002  0.41281431E+001  0.15241873E+002
  0.94730333E+000  0.44973642E+001  0.30044666E+001
 -0.32973986E+001 -0.19886657E-002  0.11317661E+003
 -0.19348081E+002  0.44109226E+001  0.10094000E+003
 -0.33840875E+002  0.30948551E+001  0.88697547E+002
 -0.45971037E+002  0.24526270E+001  0.76448785E+002
 -0.52035508E+002  0.22520973E+001  0.64209136E+002
 -0.52035748E+002  0.22960036E+001  0.51973676E+002
 -0.45971311E+002  0.25975194E+001  0.39733895E+002
 -0.33840643E+002  0.34235701E+001  0.27485392E+002
 -0.19347752E+002  0.44988359E+001  0.15242443E+002
  0.12002220E+001  0.44980489E+001  0.30047124E+001
  0.51601470E-001  0.10240591E-001  0.11318169E+003
  0.79628141E+001  0.18959649E+002  0.10089971E+003
  0.13581706E+002  0.32370233E+002  0.88716247E+002
  0.18291512E+002  0.43577794E+002  0.76486012E+002
  0.20624307E+002  0.49135651E+002  0.64217131E+002
  0.20618106E+002  0.49121458E+002  0.51965239E+002
  0.18280020E+002  0.43549252E+002  0.39705036E+002
  0.13576309E+002  0.32348558E+002  0.27462815E+002
  0.79542883E+001  0.18950565E+002  0.15257565E+002
  0.17654499E-003  0.45762293E-004  0.30001281E+001
  0.27749767E+001 -0.35721078E+001  0.11318439E+003
  0.12021633E+002  0.17229349E+002  0.10089836E+003
  0.16439429E+002  0.31176911E+002  0.88716677E+002
  0.20558817E+002  0.42635108E+002  0.76486727E+002
  0.22704066E+002  0.48262078E+002  0.64217279E+002
  0.22737006E+002  0.48227821E+002  0.51964906E+002
  0.20679989E+002  0.42548419E+002  0.39704361E+002
  0.16736088E+002  0.31025433E+002  0.27463081E+002
  0.12101251E+002  0.17203366E+002  0.15257910E+002
  0.41495372E+001 -0.17414123E+001  0.30115410E+001
  0.28819548E+001 -0.36210069E+001  0.11318243E+003
  0.12501562E+002  0.17009028E+002  0.10089344E+003
  0.17169776E+002  0.30874772E+002  0.88715464E+002
  0.21494844E+002  0.42256791E+002  0.76486026E+002
  0.23740199E+002  0.47842100E+002  0.64217017E+002
  0.23772052E+002  0.47806157E+002  0.51965793E+002
  0.21613865E+002  0.42166653E+002  0.39705911E+002
  0.17463453E+002  0.30717581E+002  0.27464663E+002
  0.12580521E+002  0.16981504E+002  0.15259844E+002
  0.42888444E+001 -0.18156977E+001  0.30129638E+001
  0.29722990E+001 -0.36706710E+001  0.11318066E+003
  0.12977407E+002  0.16788028E+002  0.10090429E+003
  0.17890561E+002  0.30547705E+002  0.88712005E+002
  0.22416856E+002  0.41844479E+002  0.76476912E+002
  0.24770124E+002  0.47404819E+002  0.64216327E+002
  0.24804017E+002  0.47374692E+002  0.51967404E+002
  0.22539136E+002  0.41764034E+002  0.39712550E+002
  0.18183102E+002  0.30392354E+002  0.27471344E+002
  0.13057061E+002  0.16756051E+002  0.15258147E+002
  0.44270923E+001 -0.18894221E+001  0.30106727E+001
  0.30642860E+001 -0.37189144E+001  0.11317977E+003
  0.13450321E+002  0.16561205E+002  0.10091604E+003
  0.18605657E+002  0.30212320E+002  0.88708730E+002
  0.23331886E+002  0.41422359E+002  0.76469594E+002
  0.25791953E+002  0.46953818E+002  0.64215976E+002
  0.25828004E+002  0.46928548E+002  0.51968078E+002
  0.23457097E+002  0.41349060E+002  0.39717419E+002
  0.18897162E+002  0.30058196E+002  0.27476252E+002
  0.13529911E+002  0.16525636E+002  0.15254930E+002
  0.45642173E+001 -0.19626244E+001  0.30081758E+001
  0.31580518E+001 -0.37657031E+001  0.11317950E+003
  0.13919841E+002  0.16328309E+002  0.10092696E+003
  0.19314831E+002  0.29869133E+002  0.88705519E+002
  0.24239615E+002  0.40989840E+002  0.76463815E+002
  0.26804587E+002  0.46487024E+002  0.64215355E+002
  0.26842507E+002  0.46465345E+002  0.51968473E+002
  0.24366944E+002  0.40920898E+002  0.39721009E+002
  0.19605325E+002  0.29715162E+002  0.27479646E+002
  0.13998732E+002  0.16289874E+002  0.15250788E+002
  0.47001230E+001 -0.20352948E+001  0.30057822E+001
  0.32538997E+001 -0.38109382E+001  0.11317948E+003
  0.14384802E+002  0.16088103E+002  0.10093422E+003
  0.20017913E+002  0.29518832E+002  0.88702327E+002
  0.25140093E+002  0.40546801E+002  0.76459659E+002
  0.27807047E+002  0.46002902E+002  0.64214445E+002
  0.27845906E+002  0.45982802E+002  0.51968803E+002
  0.25268081E+002  0.40479025E+002  0.39723632E+002
  0.20306854E+002  0.29362526E+002  0.27482827E+002
  0.14462280E+002  0.16046739E+002  0.15248362E+002
  0.48347104E+001 -0.21073734E+001  0.30038084E+001
  0.33525934E+001 -0.38542876E+001  0.11317949E+003
  0.14844953E+002  0.15841936E+002  0.10093841E+003
  0.20715290E+002  0.29162258E+002  0.88699051E+002
  0.26034194E+002  0.40094765E+002  0.76457352E+002
  0.28800051E+002  0.45503628E+002  0.64213534E+002
  0.28838941E+002  0.45483474E+002  0.51969041E+002
  0.26161451E+002  0.40025714E+002  0.39725099E+002
  0.21002292E+002  0.29002104E+002  0.27485125E+002
  0.14921539E+002  0.15799248E+002  0.15244978E+002
  0.49680178E+001 -0.21787377E+001  0.30026291E+001
  0.34536925E+001 -0.38956381E+001  0.11317951E+003
  0.15300396E+002  0.15590941E+002  0.10094042E+003
  0.21408344E+002  0.28801168E+002  0.88698149E+002
  0.26922965E+002  0.39635564E+002  0.76456903E+002
  0.29785041E+002  0.44992065E+002  0.64212839E+002
  0.29823515E+002  0.44971106E+002  0.51969538E+002
  0.27048970E+002  0.39564375E+002  0.39725253E+002
  0.21692966E+002  0.28636657E+002  0.27484839E+002
  0.15376042E+002  0.15546680E+002  0.15243426E+002
  0.51001299E+001 -0.22492815E+001  0.30022607E+001
  0.51601470E-001  0.10240591E-001  0.11318169E+003
  0.12445756E+002 -0.16366566E+002  0.10090605E+003
  0.21226711E+002 -0.27948709E+002  0.88713020E+002
  0.28589299E+002 -0.37625324E+002  0.76484659E+002
  0.32246006E+002 -0.42426304E+002  0.64220308E+002
  0.32241935E+002 -0.42414262E+002  0.51968366E+002
  0.28580383E+002 -0.37597234E+002  0.39713020E+002
  0.21222763E+002 -0.27922941E+002  0.27474257E+002
  0.12435253E+002 -0.16362633E+002  0.15258292E+002
  0.17654499E-003  0.45762293E-004  0.30001281E+001
[...]
CELL_DATA 1449
SCALARS Gamma double
LOOKUP_TABLE default
 -0.36473240E+001
  0.36473240E+001
 -0.10951581E+003
  0.10586849E+003
 -0.95748141E+002
 -0.13767672E+002
 -0.91017145E+002
 -0.47309962E+001
 -0.91766691E+002
  0.74954586E+000
 -0.87345358E+002
 -0.44213330E+001
 -0.90783128E+002
  0.34377697E+001
 -0.10752161E+003
  0.16738479E+002
 -0.54393524E+002
 -0.53128083E+002
 -0.54393524E+002
  0.00000000E+000
  0.36473240E+001
  0.00000000E+000
  0.10586849E+003
  0.00000000E+000
 -0.13767672E+002
  0.00000000E+000
 -0.47309962E+001
  0.00000000E+000
  0.74954586E+000
  0.00000000E+000
 -0.44213330E+001
  0.00000000E+000
  0.34377697E+001
  0.00000000E+000
  0.16738479E+002
  0.00000000E+000
 -0.53128083E+002
 -0.54393524E+002
  0.81306747E+000
  0.28342566E+001
  0.30127491E+002
  0.76554066E+002
  0.26362697E+002
 -0.10002878E+002
  0.24959662E+002
 -0.33279609E+001
  0.25116522E+002
  0.59268608E+000
  0.23916739E+002
 -0.32215504E+001
  0.24925303E+002
  0.24292057E+001
  0.29565649E+002
  0.12098133E+002
  0.14678913E+002
 -0.38241348E+002
 -0.39714610E+002
  0.10427003E+001
  0.17915563E+001
  0.30769127E+002
  0.46827639E+002
  0.26983230E+002
 -0.62169816E+001
  0.24776825E+002
 -0.11215561E+001
  0.24504431E+002
  0.86508056E+000
  0.23208485E+002
 -0.19256050E+001
  0.24544431E+002
  0.10932602E+001
  0.29638113E+002
  0.70044515E+001
  0.14999923E+002
 -0.23603158E+002
 -0.24714688E+002
  0.97299534E+000
  0.81856091E+000
  0.27077488E+002
  0.20723147E+002
  0.23657597E+002
 -0.27970910E+001
  0.22649332E+002
 -0.11329133E+000
  0.22929610E+002
  0.58480337E+000
  0.21802107E+002
 -0.79810264E+000
  0.22590109E+002
  0.30525857E+000
  0.26662817E+002
  0.29317436E+001
  0.13579584E+002
 -0.10519925E+002
 -0.11135103E+002
  0.64872544E+000
  0.16983547E+000
  0.17225887E+002
  0.41459856E+001
  0.14985761E+002
 -0.55696483E+000
  0.14823631E+002
  0.48838483E-001
  0.15253043E+002
  0.15539132E+000
  0.14596251E+002
 -0.14131106E+000
  0.14877618E+002
  0.23892066E-001
  0.17257262E+002
  0.55209979E+000
  0.88586096E+001
 -0.21212729E+001
 -0.22764939E+001
  0.16779964E+000
  0.20358333E-002
  0.42656912E+001
  0.48093971E-001
  0.37150864E+001
 -0.63599538E-002
  0.37625785E+001
  0.13463489E-002
  0.39157448E+001
  0.22250323E-002
  0.37758405E+001
 -0.14067937E-002
  0.37998844E+001
 -0.15175484E-003
  0.43459621E+001
  0.60219938E-002
  0.22494345E+001
 -0.24745317E-001
 -0.27059359E-001
  0.20358333E-002
  0.00000000E+000
  0.00000000E+000
  0.50129804E-001
 -0.00000000E+000
  0.00000000E+000
  0.43769850E-001
 -0.00000000E+000
  0.00000000E+000
  0.45116199E-001
 -0.00000000E+000
  0.00000000E+000
  0.47341231E-001
 -0.00000000E+000
  0.00000000E+000
  0.45934438E-001
 -0.00000000E+000
  0.00000000E+000
  0.45782683E-001
 -0.00000000E+000
  0.00000000E+000
  0.51804677E-001
 -0.00000000E+000
  0.00000000E+000
  0.27059359E-001
 -0.00000000E+000
  0.00000000E+000
 -0.00000000E+000
  0.80502563E+002
 -0.80502563E+002
  0.40282659E+002
  0.40219905E+002
  0.21054056E+002
  0.19228603E+002
  0.30589626E+002
 -0.95355699E+001
  0.42331236E+002
 -0.11741611E+002
  0.37138598E+002
  0.51926384E+001
  0.29477723E+002
  0.76608747E+001
  0.40889097E+002
 -0.11411374E+002
  0.44159041E+002
 -0.32699444E+001
  0.44159041E+002
  0.00000000E+000
 -0.80502563E+002
  0.00000000E+000
  0.40219905E+002
  0.00000000E+000
  0.19228603E+002
  0.00000000E+000
 -0.95355699E+001
  0.00000000E+000
 -0.11741611E+002
  0.00000000E+000
  0.51926384E+001
  0.00000000E+000
  0.76608747E+001
  0.00000000E+000
 -0.11411374E+002
  0.00000000E+000
 -0.32699444E+001
  0.44159041E+002
 -0.22502711E+002
 -0.57999852E+002
 -0.97894030E+001
  0.27506596E+002
 -0.46793619E+001
  0.14118562E+002
 -0.72049479E+001
 -0.70099840E+001
 -0.10356513E+002
 -0.85900453E+001
 -0.89712578E+001
  0.38073832E+001
 -0.69011648E+001
  0.55907816E+001
 -0.98479918E+001
 -0.84645468E+001
 -0.10933998E+002
 -0.21839384E+001
  0.33225043E+002
 -0.22238158E+002
 -0.35761694E+002
 -0.11071798E+002
  0.16340236E+002
 -0.50772428E+001
  0.81240071E+001
 -0.80530541E+001
 -0.40341727E+001
 -0.12045193E+002
 -0.45979064E+001
 -0.10367287E+002
  0.21294770E+001
 -0.77188607E+001
  0.29423555E+001
 -0.10764720E+002
 -0.54186876E+001
 -0.11897044E+002
 -0.10516144E+001
  0.21328000E+002
 -0.19801747E+002
 -0.15959946E+002
 -0.10431548E+002
  0.69700364E+001
 -0.56400549E+001
  0.33325139E+001
 -0.81041948E+001
 -0.15700328E+001
 -0.11011162E+002
 -0.16909396E+001
 -0.96864267E+001
  0.80474206E+000
 -0.77734533E+001
  0.10293821E+001
 -0.10713530E+002
 -0.24786105E+001
 -0.11444404E+002
 -0.32074043E+000
  0.98835952E+001
 -0.12734296E+002
 -0.32256505E+001
 -0.70919756E+001
  0.13277161E+001
 -0.43707978E+001
  0.61133605E+000
 -0.56838027E+001
 -0.25702784E+000
 -0.71110926E+001
 -0.26364967E+000
 -0.64318326E+001
  0.12548201E+000
 -0.55503317E+001
  0.14788120E+000
 -0.75239556E+001
 -0.50498659E+000
 -0.78048641E+001
 -0.39831881E-001
  0.20787311E+001
 -0.31878192E+001
 -0.37831218E-001
 -0.18745597E+001
  0.14456477E-001
 -0.12697514E+001
  0.65277625E-002
 -0.15248765E+001
 -0.19027177E-002
 -0.17864326E+001
 -0.20935815E-002
 -0.16619089E+001
  0.95830135E-003
 -0.15148379E+001
  0.81028700E-003
 -0.20138719E+001
 -0.59526030E-002
 -0.20534908E+001
 -0.21301071E-003
  0.25240302E-001
 -0.37831218E-001
 -0.00000000E+000
 -0.00000000E+000
 -0.23374740E-001
 -0.00000000E+000
 -0.00000000E+000
 -0.16846978E-001
 -0.00000000E+000
 -0.00000000E+000
 -0.18749696E-001
 -0.00000000E+000
 -0.00000000E+000
 -0.20843277E-001
 -0.00000000E+000
 -0.00000000E+000
 -0.19884976E-001
 -0.00000000E+000
 -0.00000000E+000
 -0.19074689E-001
 -0.00000000E+000
 -0.00000000E+000
 -0.25027292E-001
 -0.00000000E+000
 -0.00000000E+000
 -0.25240302E-001
 -0.00000000E+000
 -0.00000000E+000
  0.00000000E+000
  0.30894460E+002
 -0.30894460E+002
  0.61966644E+002
 -0.31072184E+002
  0.44354113E+002
  0.17612532E+002
  0.53524511E+002
 -0.91703982E+001
  0.63611875E+002
 -0.10087364E+002
  0.60237823E+002
  0.33740523E+001
  0.55056205E+002
  0.51816178E+001
  0.66649016E+002
 -0.11592811E+002
  0.18455828E+002
  0.48193188E+002
  0.18455828E+002
  0.00000000E+000
 -0.30894460E+002
  0.00000000E+000
 -0.31072184E+002
  0.00000000E+000
  0.17612532E+002
  0.00000000E+000
 -0.91703982E+001
  0.00000000E+000
 -0.10087364E+002
  0.00000000E+000
  0.33740523E+001
  0.00000000E+000
  0.51816178E+001
  0.00000000E+000
 -0.11592811E+002
  0.00000000E+000
  0.48193188E+002
  0.18455828E+002
 -0.91427859E+001
 -0.21751674E+002
 -0.18218177E+002
 -0.21996792E+002
 -0.13262100E+002
  0.12656455E+002
 -0.15822092E+002
 -0.66104064E+001
 -0.18657186E+002
 -0.72522709E+001
 -0.17715272E+002
  0.24321392E+001
 -0.16298742E+002
  0.37650876E+001
 -0.19532151E+002
 -0.83594026E+001
 -0.54606198E+001
  0.34121657E+002
  0.12995209E+002
 -0.88111280E+001
 -0.12940546E+002
 -0.17364621E+002
 -0.13443300E+002
 -0.12134860E+002
  0.74266936E+001
 -0.15020160E+002
 -0.37251056E+001
 -0.18202912E+002
 -0.40695191E+001
 -0.17222675E+002
  0.14519017E+001
 -0.15451635E+002
  0.19940483E+001
 -0.18533877E+002
 -0.52771613E+001
 -0.51786026E+001
  0.20766383E+002
  0.78166061E+001
 -0.73888130E+001
 -0.55517334E+001
 -0.14859403E+002
 -0.59727103E+001
 -0.10531808E+002
  0.30990986E+001
 -0.12815353E+002
 -0.14415602E+001
 -0.15308397E+002
 -0.15764755E+001
 -0.14442329E+002
  0.58583389E+000
 -0.13152417E+002
  0.70413672E+000
 -0.16048524E+002
 -0.23810543E+001
 -0.44178333E+001
  0.91356917E+001
  0.33987728E+001
 -0.44720828E+001
 -0.10796506E+001
 -0.92379513E+001
 -0.12068418E+001
 -0.67130300E+001
  0.57417728E+000
 -0.79160876E+001
 -0.23850265E+000
 -0.92326540E+001
 -0.25990912E+000
 -0.87457936E+001
  0.98973503E-001
 -0.81446344E+001
  0.10297754E+000
 -0.10049450E+002
 -0.47623825E+000
 -0.27284752E+001
  0.18147164E+001
  0.67029763E+000
 -0.10674822E+001
 -0.12168383E-001
 -0.22601309E+001
 -0.14193089E-001
 -0.16920466E+001
  0.60929708E-002
 -0.19286953E+001
 -0.18539712E-002
 -0.21864031E+001
 -0.22012529E-002
 -0.20882739E+001
  0.84422521E-003
 -0.19858451E+001
  0.54879671E-003
 -0.24566168E+001
 -0.54665826E-002
 -0.66265053E+000
  0.20750192E-001
  0.76470951E-002
 -0.12168383E-001
 -0.00000000E+000
 -0.00000000E+000
 -0.26361473E-001
 -0.00000000E+000
 -0.00000000E+000
 -0.20268502E-001
 -0.00000000E+000
 -0.00000000E+000
 -0.22122473E-001
 -0.00000000E+000
 -0.00000000E+000
 -0.24323726E-001
 -0.00000000E+000
 -0.00000000E+000
 -0.23479501E-001
 -0.00000000E+000
 -0.00000000E+000
 -0.22930704E-001
 -0.00000000E+000
 -0.00000000E+000
 -0.28397287E-001
 -0.00000000E+000
 -0.00000000E+000
 -0.76470951E-002
 -0.00000000E+000
 -0.00000000E+000
  0.00000000E+000
 -0.42504569E+000
  0.42504569E+000
  0.22385790E+001
 -0.26636247E+001
  0.35045775E+000
  0.18881213E+001
  0.27360587E+000
  0.76851881E-001
 -0.31372256E+000
  0.58732844E+000
 -0.60617991E+000
  0.29245734E+000
 -0.87388252E+000
  0.26770261E+000
 -0.10948407E+001
  0.22095813E+000
 -0.17722416E+001
  0.67740090E+000
 -0.17722416E+001
  0.00000000E+000
  0.42504569E+000
  0.00000000E+000
 -0.26636247E+001
  0.00000000E+000
  0.18881213E+001
  0.00000000E+000
  0.76851881E-001
  0.00000000E+000
  0.58732844E+000
  0.00000000E+000
  0.29245734E+000
  0.00000000E+000
  0.26770261E+000
  0.00000000E+000
  0.22095813E+000
  0.00000000E+000
  0.67740090E+000
 -0.17722416E+001
 -0.27084535E+000
  0.69589104E+000
 -0.75691825E+000
 -0.21775518E+001
 -0.15188359E+000
  0.12830866E+001
 -0.10735238E+000
  0.32320669E-001
  0.82615287E-001
  0.39736077E+000
  0.17674943E+000
  0.19832320E+000
  0.26455362E+000
  0.17989843E+000
  0.33543995E+000
  0.15007179E+000
  0.54089334E+000
  0.47194751E+000
 -0.12313482E+001
  0.49003459E+000
  0.20585645E+000
 -0.72094390E+000
 -0.96657333E+000
 -0.10196453E+000
  0.66410724E+000
 -0.12279575E+000
  0.53151884E-001
  0.63897965E-001
  0.21066706E+000
  0.15246794E+000
  0.10975322E+000
  0.24066590E+000
  0.91700472E-001
  0.31558484E+000
  0.75152854E-001
  0.51858801E+000
  0.26894434E+000
 -0.71276020E+000
  0.22058251E+000
 -0.14726060E-001
 -0.50525433E+000
 -0.24073648E+000
 -0.71576945E-001
  0.23042985E+000
 -0.54497242E-001
  0.36072180E-001
  0.77342782E-001
  0.78827037E-001
  0.14351446E+000
  0.43581542E-001
  0.20182208E+000
  0.33392851E-001
  0.24991818E+000
  0.27056754E-001
  0.40676106E+000
  0.11210146E+000
 -0.30599914E+000
  0.11591051E-002
 -0.15885165E-001
 -0.21969885E+000
 -0.19878529E-001
 -0.24307034E-001
  0.35038042E-001
  0.29444707E-002
  0.88206752E-002
  0.68706243E-001
  0.13065265E-001
  0.10477999E+000
  0.75077901E-002
  0.13285900E+000
  0.53138460E-002
  0.15551724E+000
  0.43985183E-002
  0.24588546E+000
  0.21733232E-001
 -0.60113674E-001
 -0.15695824E-001
 -0.18934076E-003
 -0.35522716E-001
 -0.51637527E-004
 -0.78145232E-003
  0.29677866E-003
  0.79265796E-002
  0.11264327E-003
  0.20867785E-001
  0.12405976E-003
  0.28305413E-001
  0.70162431E-004
  0.33575191E-001
  0.44067848E-004
  0.37937774E-001
  0.35934829E-004
  0.59422186E-001
  0.24882016E-003
 -0.69148868E-003
 -0.18934076E-003
 -0.00000000E+000
 -0.00000000E+000
 -0.24097829E-003
 -0.00000000E+000
 -0.00000000E+000
  0.55800373E-004
  0.00000000E+000
  0.00000000E+000
  0.16844364E-003
 -0.00000000E+000
  0.00000000E+000
  0.29250341E-003
 -0.00000000E+000
  0.00000000E+000
  0.36266584E-003
 -0.00000000E+000
  0.00000000E+000
  0.40673368E-003
 -0.00000000E+000
  0.00000000E+000
  0.44266851E-003
 -0.00000000E+000
  0.00000000E+000
  0.69148868E-003
 -0.00000000E+000
  0.00000000E+000
 -0.00000000E+000
 -0.99982204E+000
  0.99982204E+000
 -0.33841057E+000
 -0.66141147E+000
 -0.13053651E+001
  0.96695453E+000
 -0.17760739E+001
  0.47070879E+000
 -0.21113336E+001
  0.33525966E+000
 -0.20666595E+001
 -0.44674055E-001
 -0.19097783E+001
 -0.15688122E+000
 -0.15258873E+001
 -0.38389097E+000
 -0.10908334E+001
 -0.43505387E+000
 -0.10908334E+001
  0.00000000E+000
  0.99982204E+000
  0.00000000E+000
 -0.66141147E+000
  0.00000000E+000
  0.96695453E+000
  0.00000000E+000
  0.47070879E+000
  0.00000000E+000
  0.33525966E+000
  0.00000000E+000
 -0.44674055E-001
  0.00000000E+000
 -0.15688122E+000
  0.00000000E+000
 -0.38389097E+000
  0.00000000E+000
 -0.43505387E+000
 -0.10908334E+001
  0.52177165E+000
  0.47805039E+000
 -0.16848285E-001
 -0.12279153E+000
  0.34067874E+000
  0.60942751E+000
  0.47289464E+000
  0.33849289E+000
  0.57518862E+000
  0.23296568E+000
  0.56627045E+000
 -0.35755882E-001
  0.52230622E+000
 -0.11291699E+000
  0.41634538E+000
 -0.27793014E+000
  0.29632538E+000
 -0.31503387E+000
 -0.79450805E+000
  0.20790046E+000
  0.27014992E+000
  0.10999486E+000
 -0.24885930E-001
  0.33387990E+000
  0.38554246E+000
  0.44346670E+000
  0.22890609E+000
  0.50596707E+000
  0.17046531E+000
  0.46053396E+000
  0.96772320E-002
  0.39777944E+000
 -0.50162472E-001
  0.28551796E+000
 -0.16566866E+000
  0.13741367E+000
 -0.16692958E+000
 -0.65709438E+000
  0.16639608E+000
  0.10375385E+000
  0.12917388E+000
  0.12336271E-001
  0.35113219E+000
  0.16358415E+000
  0.47595892E+000
  0.10407937E+000
  0.56563783E+000
  0.80786391E-001
  0.55998429E+000
  0.15330773E-001
  0.52217745E+000
 -0.12355634E-001
  0.42171285E+000
 -0.65204050E-001
  0.31037291E+000
 -0.55589640E-001
 -0.34672148E+000
  0.89847100E-001
  0.13906748E-001
  0.97873087E-001
  0.43102834E-002
  0.23445350E+000
  0.27003731E-001
  0.31918700E+000
  0.19345879E-001
  0.38308300E+000
  0.16890385E-001
  0.39173119E+000
  0.66825889E-002
  0.37732871E+000
  0.20468383E-002
  0.32045489E+000
 -0.83302305E-002
  0.26895667E+000
 -0.40914188E-002
 -0.77764804E-001
  0.13843415E-001
  0.63332842E-004
  0.18160081E-001
 -0.63821958E-005
  0.44992030E-001
  0.17178095E-003
  0.64198178E-001
  0.13973104E-003
  0.80934843E-001
  0.15372039E-003
  0.87520845E-001
  0.96587215E-004
  0.89482047E-001
  0.85635798E-004
  0.81146095E-001
  0.57217056E-005
  0.76990012E-001
  0.64664345E-004
 -0.77479209E-003
  0.63332842E-004
 -0.00000000E+000
 -0.00000000E+000
  0.56950646E-004
 -0.00000000E+000
 -0.00000000E+000
  0.22873159E-003
 -0.00000000E+000
 -0.00000000E+000
  0.36846263E-003
 -0.00000000E+000
 -0.00000000E+000
  0.52218302E-003
 -0.00000000E+000
 -0.00000000E+000
  0.61877024E-003
 -0.00000000E+000
 -0.00000000E+000
  0.70440604E-003
  0.00000000E+000
  0.00000000E+000
  0.71012774E-003
 -0.00000000E+000
  0.00000000E+000
  0.77479209E-003
 -0.00000000E+000
  0.00000000E+000
 -0.00000000E+000
  0.12588748E+002
 -0.12588748E+002
  0.11669157E+002
  0.91959029E+000
  0.46531908E+001
  0.70159666E+001
 -0.17930272E+001
  0.64462181E+001
 -0.18160468E+001
  0.23019575E-001
 -0.22933573E+001
  0.47731051E+000
 -0.22397474E+001
 -0.53609919E-001
 -0.18471518E+001
 -0.39259557E+000
 -0.11149547E+001
 -0.73219711E+000
 -0.11149547E+001
  0.00000000E+000
 -0.12588748E+002
  0.00000000E+000
  0.91959029E+000
  0.00000000E+000
  0.70159666E+001
  0.00000000E+000
  0.64462181E+001
  0.00000000E+000
  0.23019575E-001
  0.00000000E+000
  0.47731051E+000
  0.00000000E+000
 -0.53609919E-001
  0.00000000E+000
 -0.39259557E+000
  0.00000000E+000
 -0.73219711E+000
 -0.11149547E+001
 -0.50162088E+001
 -0.75725390E+001
 -0.32659884E+001
 -0.83063005E+000
 -0.10515913E+001
  0.48015696E+001
  0.43907548E+000
  0.49555512E+001
  0.50131310E+000
 -0.39218049E-001
  0.61861102E+000
  0.36001259E+000
  0.60249383E+000
 -0.37492723E-001
  0.49390750E+000
 -0.28400924E+000
  0.27823363E+000
 -0.51652324E+000
 -0.83672110E+000
 -0.38152319E+001
 -0.37573070E+001
 -0.32716854E+001
 -0.13741766E+001
 -0.12484452E+001
  0.27783293E+001
  0.44170768E+000
  0.32653984E+001
  0.43394763E+000
 -0.31458001E-001
  0.54083738E+000
  0.25312284E+000
  0.51112643E+000
 -0.77817690E-002
  0.39938196E+000
 -0.17226477E+000
  0.16901572E+000
 -0.28615700E+000
 -0.66770539E+000
 -0.25390623E+001
 -0.12182447E+001
 -0.29495365E+001
 -0.96370237E+000
 -0.12358414E+001
  0.10646342E+001
  0.50070350E+000
  0.15288535E+001
  0.48320289E+000
 -0.13957393E-001
  0.61753584E+000
  0.11878989E+000
  0.60389739E+000
  0.58566755E-002
  0.50211255E+000
 -0.70479926E-001
  0.32377232E+000
 -0.10781676E+000
 -0.34393307E+000
 -0.10586385E+001
 -0.15960625E+000
 -0.17904075E+001
 -0.23193333E+000
 -0.87837968E+000
  0.15260639E+000
  0.34081773E+000
  0.30965604E+000
  0.32756731E+000
 -0.70696891E-003
  0.42125617E+000
  0.25101024E-001
  0.42179459E+000
  0.53182568E-002
  0.36141177E+000
 -0.10097102E-001
  0.26858358E+000
 -0.14988574E-001
 -0.75349489E-001
 -0.15857867E+000
 -0.10275771E-002
 -0.38833566E+000
 -0.21763449E-002
 -0.23639612E+000
  0.66684911E-003
  0.70133890E-001
  0.31260352E-002
  0.69548593E-001
 -0.12167225E-003
  0.94369440E-001
  0.28017772E-003
  0.99590135E-001
  0.97561563E-004
  0.89527236E-001
 -0.34201940E-004
  0.74622044E-001
 -0.83382695E-004
 -0.72744468E-003
 -0.10275771E-002
 -0.00000000E+000
 -0.00000000E+000
 -0.32039221E-002
 -0.00000000E+000
 -0.00000000E+000
 -0.25370730E-002
 -0.00000000E+000
 -0.00000000E+000
  0.58896227E-003
  0.00000000E+000
  0.00000000E+000
  0.46729003E-003
 -0.00000000E+000
  0.00000000E+000
  0.74746775E-003
 -0.00000000E+000
  0.00000000E+000
  0.84502932E-003
 -0.00000000E+000
  0.00000000E+000
  0.81082738E-003
 -0.00000000E+000
  0.00000000E+000
  0.72744468E-003
 -0.00000000E+000
  0.00000000E+000
 -0.00000000E+000
 -0.18416487E+000
  0.18416487E+000
 -0.25538290E+001
  0.23696641E+001
 -0.39721343E+001
  0.14183053E+001
 -0.56625004E+001
  0.16903661E+001
 -0.69466098E+001
  0.12841094E+001
 -0.90456205E+001
  0.20990107E+001
 -0.10586909E+002
  0.15412886E+001
 -0.11125391E+002
  0.53848234E+000
 -0.13106340E+002
  0.19809483E+001
 -0.13106340E+002
  0.00000000E+000
  0.18416487E+000
  0.00000000E+000
  0.23696641E+001
  0.00000000E+000
  0.14183053E+001
  0.00000000E+000
  0.16903661E+001
  0.00000000E+000
  0.12841094E+001
  0.00000000E+000
  0.20990107E+001
  0.00000000E+000
  0.15412886E+001
  0.00000000E+000
  0.53848234E+000
  0.00000000E+000
  0.19809483E+001
 -0.13106340E+002
 -0.59507588E+000
  0.77924075E+000
  0.81218722E+000
  0.96240101E+000
  0.10966749E+001
  0.11338177E+001
  0.16089505E+001
  0.11780905E+001
  0.19663733E+001
  0.92668665E+000
  0.25481641E+001
  0.15172198E+001
  0.29672097E+001
  0.11222430E+001
  0.30966620E+001
  0.40903004E+000
  0.36103636E+001
  0.14672467E+001
 -0.94959761E+001
  0.12137935E+000
  0.65786140E+000
  0.84057936E+000
  0.24320100E+000
  0.12811604E+001
  0.69323664E+000
  0.18597921E+001
  0.59945874E+000
  0.22636994E+001
  0.52277937E+000
  0.30182222E+001
  0.76269704E+000
  0.35486067E+001
  0.59185849E+000
  0.37552398E+001
  0.20239694E+000
  0.44900438E+001
  0.73244268E+000
 -0.50059323E+001
  0.17084056E+000
  0.48702084E+000
  0.56623376E+000
 -0.15219220E+000
  0.96953392E+000
  0.28993648E+000
  0.13699372E+001
  0.19905543E+000
  0.16978081E+001
  0.19490846E+000
  0.22025791E+001
  0.25792610E+000
  0.25840360E+001
  0.21040160E+000
  0.27206181E+001
  0.65814830E-001
  0.32163063E+001
  0.23675448E+000
 -0.17896260E+001
  0.39524310E+000
  0.91777741E-001
  0.28427754E+000
 -0.41226645E-001
  0.52408983E+000
  0.50124186E-001
  0.69652740E+000
  0.26617857E-001
  0.86250648E+000
  0.28929383E-001
  0.10856378E+001
  0.34794740E-001
  0.12661759E+001
  0.29863566E-001
  0.13238886E+001
  0.81020706E-002
  0.15341435E+001
  0.26499582E-001
 -0.25548248E+000
  0.90766224E-001
  0.10115168E-002
  0.50283900E-001
 -0.74432121E-003
  0.99817298E-001
  0.59078817E-003
  0.12629913E+000
  0.13602636E-003
  0.15504503E+000
  0.18348249E-003
  0.18965818E+000
  0.18158900E-003
  0.21936837E+000
  0.15338020E-003
  0.22746245E+000
  0.79856616E-005
  0.25397006E+000
 -0.80285949E-005
 -0.15124189E-002
  0.10115168E-002
  0.00000000E+000
  0.00000000E+000
  0.26719562E-003
 -0.00000000E+000
  0.00000000E+000
  0.85798379E-003
 -0.00000000E+000