# vtk DataFile Version 2.0
BldPointCP.BldC
ASCII
 
DATASET POLYDATA
POINTS 9 double
  0.81741770E+001 -0.81515043E+001  0.10627902E+003
  0.19776775E+002 -0.20110201E+002  0.94509960E+002
  0.29112375E+002 -0.29675500E+002  0.82379442E+002
  0.35386161E+002 -0.36045478E+002  0.70122177E+002
  0.37365582E+002 -0.38006643E+002  0.58089336E+002
  0.35348671E+002 -0.35915313E+002  0.46075198E+002
  0.29066804E+002 -0.29539970E+002  0.33803332E+002
  0.19719915E+002 -0.20060087E+002  0.21600676E+002
  0.80327353E+001 -0.81755153E+001  0.98421501E+001
  
POINT_DATA 9
SCALARS Gamma_LL double
LOOKUP_TABLE default
  0.55765008E+002
  0.10299465E+003
  0.76268008E+002
  0.88950619E+002
  0.10289328E+003
  0.10215362E+003
  0.93347772E+002
  0.10773487E+003
  0.31243287E+002
VECTORS Vind_CP double
 -0.13888762E+000 -0.23273206E+000 -0.38888306E+000
 -0.15659260E+000  0.14176657E+000 -0.28222405E+000
 -0.22257944E+000  0.19708009E+000 -0.18132192E+000
 -0.52627673E+000  0.42774940E+000 -0.16855949E+000
 -0.76714853E+000  0.62317059E+000  0.15763596E-001
 -0.62028714E+000  0.51261660E+000  0.24134650E+000
 -0.31182228E+000  0.27826615E+000  0.27662354E+000
 -0.24423424E+000  0.20814146E+000  0.31818347E+000
 -0.86690519E-001 -0.52882043E-001  0.56868208E-001
VECTORS Vtot_CP double
  0.11164276E+000 -0.15294759E+002  0.54490184E+000
 -0.20947739E+002 -0.34960762E+002  0.73647397E+000
 -0.38469184E+002 -0.50522787E+002 -0.38357503E+000
 -0.49693105E+002 -0.62147278E+002 -0.44871214E+000
 -0.52734717E+002 -0.67053439E+002  0.24997673E+000
 -0.49042945E+002 -0.63915742E+002  0.77783119E+000
 -0.37502760E+002 -0.52323342E+002  0.10095207E+001
 -0.19801301E+002 -0.35404546E+002  0.62466386E+000
  0.22897832E+001 -0.14614693E+002  0.14640254E-001
VECTORS Vstr_CP double
  0.16949470E+002  0.15062027E+002 -0.93378490E+000
  0.37991146E+002  0.35102528E+002 -0.10186980E+001
  0.55446604E+002  0.50719867E+002  0.20225311E+000
  0.66366828E+002  0.62575028E+002  0.28015265E+000
  0.69167568E+002  0.67676609E+002 -0.23421313E+000
  0.65622658E+002  0.64428359E+002 -0.53648469E+000
  0.54390938E+002  0.52601608E+002 -0.73289715E+000
  0.36757067E+002  0.35612688E+002 -0.30648039E+000
  0.14823526E+002  0.14561811E+002  0.42227954E-001
VECTORS Vwnd_CP double
  0.17200000E+002  0.00000000E+000  0.00000000E+000
  0.17200000E+002  0.00000000E+000  0.00000000E+000
  0.17200000E+002  0.00000000E+000  0.00000000E+000
  0.17200000E+002  0.00000000E+000  0.00000000E+000
  0.17200000E+002  0.00000000E+000  0.00000000E+000
  0.17200000E+002  0.00000000E+000  0.00000000E+000
  0.17200000E+002  0.00000000E+000  0.00000000E+000
  0.17200000E+002  0.00000000E+000  0.00000000E+000
  0.17200000E+002  0.00000000E+000  0.00000000E+000
VECTORS Tangent double
 -0.49885801E+000 -0.86668373E+000 -0.13070231E-004
 -0.71050006E+000 -0.70368332E+000  0.44093809E-002
 -0.72098908E+000 -0.69294238E+000  0.23667544E-002
 -0.71900153E+000 -0.69500800E+000 -0.82455032E-003
 -0.71349203E+000 -0.70066328E+000 -0.29668339E-003
 -0.71524014E+000 -0.69887874E+000  0.21275586E-003
 -0.71644500E+000 -0.69764347E+000  0.40261988E-003
 -0.71302667E+000 -0.70113685E+000  0.30464365E-003
 -0.71257005E+000 -0.70158715E+000 -0.44039732E-002
VECTORS Normal double
  0.46110262E+000 -0.26542070E+000  0.84672087E+000
  0.45126817E+000 -0.45081387E+000  0.77014537E+000
  0.48998149E+000 -0.50739230E+000  0.70885203E+000
  0.62648481E+000 -0.64862551E+000  0.43220565E+000
  0.70064856E+000 -0.71347416E+000 -0.67987864E-002
  0.62828262E+000 -0.64312457E+000 -0.43778046E+000
  0.49459816E+000 -0.50833445E+000 -0.70496011E+000
  0.44939553E+000 -0.45734977E+000 -0.76738181E+000
  0.36231447E+000 -0.36259650E+000 -0.85863380E+000
VECTORS Orth double
  0.73384267E+000 -0.42238746E+000 -0.53203738E+000
  0.53995064E+000 -0.54917815E+000 -0.63785317E+000
  0.48999274E+000 -0.51223424E+000 -0.70535325E+000
  0.30092121E+000 -0.31023996E+000 -0.90177469E+000
 -0.45519840E-002  0.50587507E-002 -0.99997684E+000
 -0.30609228E+000  0.31298448E+000 -0.89908188E+000
 -0.49201548E+000  0.50486601E+000 -0.70924684E+000
 -0.53817899E+000  0.54702679E+000 -0.64119035E+000
 -0.60080957E+000  0.61343236E+000 -0.51257058E+000
