# vtk DataFile Version 2.0

ASCII
 
DATASET POLYDATA
POINTS 180 double
  0.28281552E+000  0.66748932E-001  0.11318085E+003
  0.15034212E+002 -0.14119561E+002  0.10076960E+003
  0.25580387E+002 -0.24250670E+002  0.88695477E+002
  0.34461829E+002 -0.32679803E+002  0.76559690E+002
  0.38746970E+002 -0.36695907E+002  0.64218710E+002
  0.38710503E+002 -0.36568263E+002  0.51949379E+002
  0.34384750E+002 -0.32460189E+002  0.39656132E+002
  0.25524069E+002 -0.24131350E+002  0.27423795E+002
  0.14925428E+002 -0.14127609E+002  0.15269477E+002
  0.16465525E-003  0.37333645E-004  0.30001913E+001
 -0.75175245E+000 -0.43126397E+001  0.11315586E+003
  0.12053168E+002 -0.17372387E+002  0.10079095E+003
  0.23429869E+002 -0.26479011E+002  0.88714664E+002
  0.32743457E+002 -0.34433806E+002  0.76558656E+002
  0.37190245E+002 -0.38328427E+002  0.64215819E+002
  0.37130223E+002 -0.38238903E+002  0.51951193E+002
  0.32582145E+002 -0.34334257E+002  0.39657104E+002
  0.23160394E+002 -0.26610844E+002  0.27426732E+002
  0.11842412E+002 -0.17405568E+002  0.15269688E+002
 -0.30973243E+001 -0.32638936E+001  0.29520580E+001
 -0.65656236E+000 -0.43020689E+001  0.11315376E+003
  0.11907010E+002 -0.17585389E+002  0.10077070E+003
  0.23114500E+002 -0.26890241E+002  0.88704901E+002
  0.32281369E+002 -0.35008920E+002  0.76551296E+002
  0.36652386E+002 -0.38978377E+002  0.64212580E+002
  0.36592901E+002 -0.38886953E+002  0.51955282E+002
  0.32119782E+002 -0.34904725E+002  0.39666418E+002
  0.22841249E+002 -0.27015638E+002  0.27438303E+002
  0.11695742E+002 -0.17613224E+002  0.15271548E+002
 -0.29872800E+001 -0.32065118E+001  0.29438440E+001
 -0.59412901E+000 -0.42929904E+001  0.11315250E+003
  0.11734325E+002 -0.17790552E+002  0.10076787E+003
  0.22775744E+002 -0.27284143E+002  0.88701105E+002
  0.31788376E+002 -0.35554157E+002  0.76537976E+002
  0.36090135E+002 -0.39607642E+002  0.64211338E+002
  0.36035120E+002 -0.39531079E+002  0.51963267E+002
  0.31633331E+002 -0.35470357E+002  0.39682653E+002
  0.22506553E+002 -0.27414029E+002  0.27454640E+002
  0.11543337E+002 -0.17816645E+002  0.15273757E+002
 -0.28759169E+001 -0.31486706E+001  0.29394993E+001
 -0.53148916E+000 -0.42790711E+001  0.11315722E+003
  0.11558399E+002 -0.17988323E+002  0.10076447E+003
  0.22432284E+002 -0.27669097E+002  0.88697132E+002
  0.31287546E+002 -0.36087714E+002  0.76524072E+002
  0.35517276E+002 -0.40223835E+002  0.64209429E+002
  0.35465220E+002 -0.40161363E+002  0.51970958E+002
  0.31137204E+002 -0.36023795E+002  0.39698493E+002
  0.22165811E+002 -0.27803638E+002  0.27469731E+002
  0.11387748E+002 -0.18014527E+002  0.15276034E+002
 -0.27637916E+001 -0.30894509E+001  0.29348976E+001
 -0.46759370E+000 -0.42627161E+001  0.11316004E+003
  0.11381404E+002 -0.18182536E+002  0.10075230E+003
  0.22084487E+002 -0.28045361E+002  0.88693481E+002
  0.30779169E+002 -0.36609828E+002  0.76510021E+002
  0.34934402E+002 -0.40827345E+002  0.64206912E+002
  0.34884433E+002 -0.40778420E+002  0.51978011E+002
  0.30632429E+002 -0.36565433E+002  0.39713296E+002
  0.21819638E+002 -0.28184754E+002  0.27482673E+002
  0.11229297E+002 -0.18206133E+002  0.15278226E+002
 -0.26509583E+001 -0.30287380E+001  0.29302882E+001
 -0.40170027E+000 -0.42457093E+001  0.11316195E+003
  0.11203195E+002 -0.18369156E+002  0.10075209E+003
  0.21732648E+002 -0.28413178E+002  0.88690312E+002
  0.30264241E+002 -0.37121494E+002  0.76496669E+002
  0.34343220E+002 -0.41419791E+002  0.64204450E+002
  0.34294668E+002 -0.41383599E+002  0.51983995E+002
  0.30120204E+002 -0.37095872E+002  0.39726192E+002
  0.21468393E+002 -0.28557423E+002  0.27493585E+002
  0.11068014E+002 -0.18392181E+002  0.15280423E+002
 -0.25365198E+001 -0.29680389E+001  0.29219536E+001
 -0.33432247E+000 -0.42256303E+001  0.11316492E+003
  0.11025190E+002 -0.18550474E+002  0.10075889E+003
  0.21377039E+002 -0.28772795E+002  0.88688033E+002
  0.29743622E+002 -0.37623686E+002  0.76484918E+002
  0.33745701E+002 -0.42003113E+002  0.64202553E+002
  0.33698098E+002 -0.41978616E+002  0.51988375E+002
  0.29601797E+002 -0.37615917E+002  0.39736198E+002
  0.21112518E+002 -0.28921834E+002  0.27501874E+002
  0.10902964E+002 -0.18572955E+002  0.15284391E+002
 -0.24214911E+001 -0.29055074E+001  0.29131974E+001
 -0.26478711E+000 -0.42038260E+001  0.11316661E+003
  0.10841545E+002 -0.18721824E+002  0.10078301E+003
  0.21017884E+002 -0.29124451E+002  0.88686966E+002
  0.29218171E+002 -0.38117409E+002  0.76475676E+002
  0.33144455E+002 -0.42579998E+002  0.64201945E+002
  0.33097731E+002 -0.42566116E+002  0.51990508E+002
  0.29078463E+002 -0.38126382E+002  0.39742572E+002
  0.20752389E+002 -0.29278145E+002  0.27507213E+002
  0.10735367E+002 -0.18746790E+002  0.15287219E+002
 -0.23049390E+001 -0.28428066E+001  0.29079223E+001
 -0.19275016E+000 -0.41801029E+001  0.11316236E+003
  0.10666051E+002 -0.18892253E+002  0.10078815E+003
  0.20655319E+002 -0.29468340E+002  0.88687482E+002
  0.28688466E+002 -0.38603398E+002  0.76469561E+002
  0.32540520E+002 -0.43151491E+002  0.64203012E+002
  0.32494923E+002 -0.43147143E+002  0.51989967E+002
  0.28551158E+002 -0.38627876E+002  0.39744654E+002
  0.20388320E+002 -0.29626471E+002  0.27509273E+002
  0.10565850E+002 -0.18915254E+002  0.15287434E+002
 -0.21870894E+001 -0.27787631E+001  0.29035971E+001
 -0.11816979E+000 -0.41572233E+001  0.11315588E+003
  0.10481748E+002 -0.19052316E+002  0.10081504E+003
  0.20289265E+002 -0.29804461E+002  0.88689584E+002
  0.28154575E+002 -0.39081794E+002  0.76466854E+002
  0.31934659E+002 -0.43718262E+002  0.64205856E+002
  0.31890570E+002 -0.43722249E+002  0.51986733E+002
  0.28019985E+002 -0.39120255E+002  0.39742417E+002
  0.20020379E+002 -0.29966671E+002  0.27508037E+002
  0.10393213E+002 -0.19078453E+002  0.15284478E+002
 -0.20669196E+001 -0.27150243E+001  0.29041730E+001
 -0.41765744E-001 -0.41275912E+001  0.11315709E+003
  0.10299860E+002 -0.19206874E+002  0.10085180E+003
  0.19917176E+002 -0.30130368E+002  0.88689197E+002
  0.27616120E+002 -0.39552186E+002  0.76467383E+002
  0.31325722E+002 -0.44278902E+002  0.64210365E+002
  0.31283501E+002 -0.44289903E+002  0.51981119E+002
  0.27484601E+002 -0.39602785E+002  0.39736327E+002
  0.19643839E+002 -0.30293721E+002  0.27511856E+002
  0.10218937E+002 -0.19235761E+002  0.15280404E+002
 -0.19446459E+001 -0.26508341E+001  0.29055448E+001
  0.38476524E-001 -0.40972143E+001  0.11315574E+003
  0.10117698E+002 -0.19357726E+002  0.10086423E+003
  0.19541199E+002 -0.30448225E+002  0.88689869E+002
  0.27071612E+002 -0.40012746E+002  0.76469917E+002
  0.30710438E+002 -0.44829356E+002  0.64215286E+002
  0.30670245E+002 -0.44845947E+002  0.51974504E+002
  0.26943182E+002 -0.40073325E+002  0.39728075E+002
  0.19265637E+002 -0.30614297E+002  0.27509034E+002
  0.10041423E+002 -0.19387018E+002  0.15277218E+002
 -0.18202382E+001 -0.25862515E+001  0.29076208E+001
  0.12246849E+000 -0.40645984E+001  0.11315258E+003
  0.99389531E+001 -0.19499440E+002  0.10089079E+003
  0.19160898E+002 -0.30757618E+002  0.88691910E+002
  0.26520322E+002 -0.40462351E+002  0.76473950E+002
  0.30086311E+002 -0.45366148E+002  0.64220286E+002
  0.30048058E+002 -0.45386870E+002  0.51967497E+002
  0.26394743E+002 -0.40530645E+002  0.39718422E+002
  0.18882940E+002 -0.30925302E+002  0.27504278E+002
  0.98640579E+001 -0.19531545E+002  0.15263905E+002
 -0.16942695E+001 -0.25202628E+001  0.29102520E+001
  0.21007059E+000 -0.40286432E+001  0.11315058E+003
  0.97571639E+001 -0.19638312E+002  0.10092823E+003
  0.18773572E+002 -0.31055646E+002  0.88690371E+002
  0.25961351E+002 -0.40899446E+002  0.76478595E+002
  0.29447611E+002 -0.45881722E+002  0.64224568E+002
  0.29410789E+002 -0.45905067E+002  0.51961127E+002
  0.25838020E+002 -0.40973075E+002  0.39708881E+002
  0.18493142E+002 -0.31223532E+002  0.27502576E+002
  0.96838096E+001 -0.19671157E+002  0.15252858E+002
 -0.15664749E+001 -0.24544984E+001  0.29230307E+001
  0.30227584E+000 -0.39910299E+001  0.11315398E+003
  0.95694017E+001 -0.19767216E+002  0.10096295E+003
  0.18382824E+002 -0.31346107E+002  0.88692274E+002
  0.25394051E+002 -0.41322320E+002  0.76483091E+002
  0.28795436E+002 -0.46375667E+002  0.64227487E+002
  0.28759356E+002 -0.46400225E+002  0.51956161E+002
  0.25272070E+002 -0.41398809E+002  0.39700086E+002
  0.18100123E+002 -0.31512998E+002  0.27497154E+002
  0.94981150E+001 -0.19801756E+002  0.15245182E+002
 -0.14368664E+001 -0.23873288E+001  0.29377472E+001
  0.39929647E+000 -0.39525896E+001  0.11315670E+003
  0.93777715E+001 -0.19885185E+002  0.10096137E+003
  0.17985978E+002 -0.31625955E+002  0.88691539E+002
  0.24819570E+002 -0.41731659E+002  0.76487715E+002
  0.28131230E+002 -0.46848888E+002  0.64229445E+002
  0.28095284E+002 -0.46873632E+002  0.51952802E+002
  0.24697721E+002 -0.41808704E+002  0.39692814E+002
  0.17702643E+002 -0.31792371E+002  0.27491851E+002
  0.93083708E+001 -0.19923251E+002  0.15242791E+002
 -0.13058848E+001 -0.23191867E+001  0.29418828E+001
  0.49951589E+000 -0.39122017E+001  0.11315890E+003
  0.91886065E+001 -0.20000446E+002  0.10097417E+003
  0.17587856E+002 -0.31901006E+002  0.88696445E+002
  0.24239237E+002 -0.42129254E+002  0.76491916E+002
  0.27459810E+002 -0.47307597E+002  0.64230911E+002
  0.27423786E+002 -0.47332190E+002  0.51950737E+002
  0.24116877E+002 -0.42205533E+002  0.39687029E+002
  0.17301968E+002 -0.32063445E+002  0.27485679E+002
  0.91147577E+001 -0.20035081E+002  0.15248812E+002
 -0.11750092E+001 -0.22490850E+001  0.29437578E+001
  
POLYGONS 153 765
      4      0      1     11     10
      4      1      2     12     11
      4      2      3     13     12
      4      3      4     14     13
      4      4      5     15     14
      4      5      6     16     15
      4      6      7     17     16
      4      7      8     18     17
      4      8      9     19     18
      4     10     11     21     20
      4     11     12     22     21
      4     12     13     23     22
      4     13     14     24     23
      4     14     15     25     24
      4     15     16     26     25
      4     16     17     27     26
      4     17     18     28     27
      4     18     19     29     28
      4     20     21     31     30
      4     21     22     32     31
      4     22     23     33     32
      4     23     24     34     33
      4     24     25     35     34
      4     25     26     36     35
      4     26     27     37     36
      4     27     28     38     37
      4     28     29     39     38
      4     30     31     41     40
      4     31     32     42     41
      4     32     33     43     42
      4     33     34     44     43
      4     34     35     45     44
      4     35     36     46     45
      4     36     37     47     46
      4     37     38     48     47
      4     38     39     49     48
      4     40     41     51     50
      4     41     42     52     51
      4     42     43     53     52
      4     43     44     54     53
      4     44     45     55     54
      4     45     46     56     55
      4     46     47     57     56
      4     47     48     58     57
      4     48     49     59     58
      4     50     51     61     60
      4     51     52     62     61
      4     52     53     63     62
      4     53     54     64     63
      4     54     55     65     64
      4     55     56     66     65
      4     56     57     67     66
      4     57     58     68     67
      4     58     59     69     68
      4     60     61     71     70
      4     61     62     72     71
      4     62     63     73     72
      4     63     64     74     73
      4     64     65     75     74
      4     65     66     76     75
      4     66     67     77     76
      4     67     68     78     77
      4     68     69     79     78
      4     70     71     81     80
      4     71     72     82     81
      4     72     73     83     82
      4     73     74     84     83
      4     74     75     85     84
      4     75     76     86     85
      4     76     77     87     86
      4     77     78     88     87
      4     78     79     89     88
      4     80     81     91     90
      4     81     82     92     91
      4     82     83     93     92
      4     83     84     94     93
      4     84     85     95     94
      4     85     86     96     95
      4     86     87     97     96
      4     87     88     98     97
      4     88     89     99     98
      4     90     91    101    100
      4     91     92    102    101
      4     92     93    103    102
      4     93     94    104    103
      4     94     95    105    104
      4     95     96    106    105
      4     96     97    107    106
      4     97     98    108    107
      4     98     99    109    108
      4    100    101    111    110
      4    101    102    112    111
      4    102    103    113    112
      4    103    104    114    113
      4    104    105    115    114
      4    105    106    116    115
      4    106    107    117    116
      4    107    108    118    117
      4    108    109    119    118
      4    110    111    121    120
      4    111    112    122    121
      4    112    113    123    122
      4    113    114    124    123
      4    114    115    125    124
      4    115    116    126    125
      4    116    117    127    126
      4    117    118    128    127
      4    118    119    129    128
      4    120    121    131    130
      4    121    122    132    131
      4    122    123    133    132
      4    123    124    134    133
      4    124    125    135    134
      4    125    126    136    135
      4    126    127    137    136
      4    127    128    138    137
      4    128    129    139    138
      4    130    131    141    140
      4    131    132    142    141
      4    132    133    143    142
      4    133    134    144    143
      4    134    135    145    144
      4    135    136    146    145
      4    136    137    147    146
      4    137    138    148    147
      4    138    139    149    148
      4    140    141    151    150
      4    141    142    152    151
      4    142    143    153    152
      4    143    144    154    153
      4    144    145    155    154
      4    145    146    156    155
      4    146    147    157    156
      4    147    148    158    157
      4    148    149    159    158
      4    150    151    161    160
      4    151    152    162    161
      4    152    153    163    162
      4    153    154    164    163
      4    154    155    165    164
      4    155    156    166    165
      4    156    157    167    166
      4    157    158    168    167
      4    158    159    169    168
      4    160    161    171    170
      4    161    162    172    171
      4    162    163    173    172
      4    163    164    174    173
      4    164    165    175    174
      4    165    166    176    175
      4    166    167    177    176
      4    167    168    178    177
      4    168    169    179    178
  
CELL_DATA 153
SCALARS Gamma double
LOOKUP_TABLE default
  0.58631403E+002
  0.10654278E+003
  0.81083806E+002
  0.92263996E+002
  0.10411850E+003
  0.10459999E+003
  0.97287853E+002
  0.11106847E+003
  0.32415356E+002
  0.58631403E+002
  0.10654278E+003
  0.81083806E+002
  0.92263996E+002
  0.10411850E+003
  0.10459999E+003
  0.97287853E+002
  0.11106847E+003
  0.32415356E+002
  0.57414600E+002
  0.10501053E+003
  0.79670528E+002
  0.90825219E+002
  0.10293404E+003
  0.10344840E+003
  0.95868519E+002
  0.10951464E+003
  0.31832455E+002
  0.55995925E+002
  0.10318339E+003
  0.77152219E+002
  0.89152246E+002
  0.10240634E+003
  0.10226954E+003
  0.93821348E+002
  0.10775768E+003
  0.31223643E+002
  0.54575238E+002
  0.10136402E+003
  0.74760834E+002
  0.87522418E+002
  0.10176708E+003
  0.10100265E+003
  0.91829215E+002
  0.10604890E+003
  0.30616215E+002
  0.53124638E+002
  0.99545566E+002
  0.72503410E+002
  0.85940782E+002
  0.10101857E+003
  0.99434899E+002
  0.89869162E+002
  0.10439297E+003
  0.30010144E+002
  0.51647466E+002
  0.97738212E+002
  0.70404471E+002
  0.84394105E+002
  0.10013231E+003
  0.97654972E+002
  0.87943123E+002
  0.10280359E+003
  0.29406983E+002
  0.50133611E+002
  0.95802285E+002
  0.68396894E+002
  0.82775051E+002
  0.98966935E+002
  0.95623256E+002
  0.85937736E+002
  0.10113575E+003
  0.28760945E+002
  0.47126770E+002
  0.91081558E+002
  0.64599049E+002
  0.78726788E+002
  0.94621029E+002
  0.90646486E+002
  0.81452395E+002
  0.96570826E+002
  0.27272932E+002
  0.40307935E+002
  0.78883779E+002
  0.55757413E+002
  0.68182051E+002
  0.82010533E+002
  0.78109832E+002
  0.70331007E+002
  0.84043411E+002
  0.23558086E+002
  0.31180205E+002
  0.61861691E+002
  0.43729599E+002
  0.53402917E+002
  0.64079181E+002
  0.60762635E+002
  0.54966018E+002
  0.66251422E+002
  0.18425397E+002
  0.21751674E+002
  0.43748467E+002
  0.31092012E+002
  0.37702419E+002
  0.44954690E+002
  0.42522550E+002
  0.38757463E+002
  0.47116865E+002
  0.12995209E+002
  0.12940546E+002
  0.26383846E+002
  0.18957153E+002
  0.22682258E+002
  0.26751777E+002
  0.25299876E+002
  0.23305827E+002
  0.28582989E+002
  0.78166061E+001
  0.55517334E+001
  0.11524444E+002
  0.84253451E+001
  0.98669053E+001
  0.11443381E+002
  0.10857547E+002
  0.10153410E+002
  0.12534465E+002
  0.33987728E+001
  0.10796506E+001
  0.22864924E+001
  0.17123151E+001
  0.19508177E+001
  0.22107269E+001
  0.21117534E+001
  0.20087758E+001
  0.24850141E+001
  0.67029763E+000
  0.12168383E-001
  0.26361473E-001
  0.20268502E-001
  0.22122473E-001
  0.24323726E-001
  0.23479501E-001
  0.22930704E-001
  0.28397287E-001
  0.76470951E-002
  0.00000000E+000
  0.00000000E+000
  0.00000000E+000
  0.00000000E+000
  0.00000000E+000
  0.00000000E+000
  0.00000000E+000
  0.00000000E+000
  0.00000000E+000
POINT_DATA 180
VECTORS Uconv double
  0.00000000E+000  0.00000000E+000  0.00000000E+000
  0.00000000E+000  0.00000000E+000  0.00000000E+000
  0.00000000E+000  0.00000000E+000  0.00000000E+000
  0.00000000E+000  0.00000000E+000  0.00000000E+000
  0.00000000E+000  0.00000000E+000  0.00000000E+000
  0.00000000E+000  0.00000000E+000  0.00000000E+000
  0.00000000E+000  0.00000000E+000  0.00000000E+000
  0.00000000E+000  0.00000000E+000  0.00000000E+000
  0.00000000E+000  0.00000000E+000  0.00000000E+000
  0.00000000E+000  0.00000000E+000  0.00000000E+000
  0.00000000E+000  0.00000000E+000  0.00000000E+000
  0.00000000E+000  0.00000000E+000  0.00000000E+000
  0.00000000E+000  0.00000000E+000  0.00000000E+000
  0.00000000E+000  0.00000000E+000  0.00000000E+000
  0.00000000E+000  0.00000000E+000  0.00000000E+000
  0.00000000E+000  0.00000000E+000  0.00000000E+000
  0.00000000E+000  0.00000000E+000  0.00000000E+000
  0.00000000E+000  0.00000000E+000  0.00000000E+000
  0.00000000E+000  0.00000000E+000  0.00000000E+000
  0.00000000E+000  0.00000000E+000  0.00000000E+000
  0.17273948E+002 -0.36660290E+000 -0.20992686E+000
  0.16868995E+002  0.12659090E+000 -0.20240513E+001
  0.16533993E+002  0.64671142E+000 -0.97544331E+000
  0.16340716E+002  0.90293867E+000 -0.73516166E+000
  0.15848734E+002  0.13661848E+001 -0.32385686E+000
  0.15740601E+002  0.14497415E+001  0.40843116E+000
  0.16132200E+002  0.10784553E+001  0.92988752E+000
  0.16389888E+002  0.80276203E+000  0.11569262E+001
  0.16873956E+002  0.28119033E+000  0.18609730E+000
  0.16832827E+002  0.10659274E+000 -0.82131348E+000
  0.17292988E+002 -0.42517305E+000 -0.21181180E+000
  0.16887251E+002  0.73358793E-001 -0.20740073E+001
  0.16559785E+002  0.62556903E+000 -0.93906971E+000
  0.16324219E+002  0.92171850E+000 -0.74226003E+000
  0.15749819E+002  0.14680932E+001 -0.34138639E+000
  0.15631470E+002  0.15612202E+001  0.43169136E+000
  0.16107778E+002  0.11065689E+001  0.94328201E+000
  0.16417818E+002  0.78049352E+000  0.11171854E+001
  0.16896508E+002  0.26974200E+000  0.23332924E+000
  0.16844636E+002  0.88382597E-001 -0.81493684E+000
  0.17298185E+002 -0.44357279E+000 -0.24293734E+000
  0.16827785E+002  0.90817298E-001 -0.22268131E+001
  0.16592714E+002  0.59598981E+000 -0.89169587E+000
  0.16324257E+002  0.92326345E+000 -0.73443720E+000
  0.15674935E+002  0.15477251E+001 -0.35141013E+000
  0.15547615E+002  0.16499882E+001  0.44828088E+000
  0.16101821E+002  0.11156306E+001  0.93937628E+000
  0.16454072E+002  0.74835688E+000  0.10641800E+001
  0.16910434E+002  0.25164144E+000  0.34524200E+000
  0.16829283E+002  0.12098087E+000 -0.80930290E+000
  0.17233330E+002 -0.23031908E+000  0.63599971E-002
  0.16844649E+002  0.65903291E-001 -0.19625821E+001
  0.16634739E+002  0.55551910E+000 -0.80846991E+000
  0.16342702E+002  0.90332759E+000 -0.70838705E+000
  0.15633903E+002  0.15930214E+001 -0.35137137E+000
  0.15500413E+002  0.17025960E+001  0.45180424E+000
  0.16117981E+002  0.11010270E+001  0.91917178E+000
  0.16501369E+002  0.70322309E+000  0.98325182E+000
  0.16937097E+002  0.22799390E+000  0.31917614E+000
  0.16834927E+002  0.11498591E+000 -0.80032064E+000
  0.17232831E+002 -0.23021701E+000  0.17924931E-001
  0.16888523E+002  0.77292288E-001 -0.15126139E+001
  0.16681600E+002  0.50858217E+000 -0.73469387E+000
  0.16382585E+002  0.85853873E+000 -0.66196271E+000
  0.15638611E+002  0.15897892E+001 -0.33855379E+000
  0.15503082E+002  0.17034778E+001  0.44032542E+000
  0.16161979E+002  0.10557318E+001  0.86874377E+000
  0.16554454E+002  0.65059552E+000  0.90117866E+000
  0.16969310E+002  0.19879393E+000  0.26504369E+000
  0.16841351E+002  0.10968590E+000 -0.79023235E+000
  0.17230793E+002 -0.22586236E+000  0.23557987E-001
  0.16917355E+002  0.31580156E-001 -0.14821006E+001
  0.16734253E+002  0.45389592E+000 -0.65077241E+000
  0.16445391E+002  0.78667973E+000 -0.59396094E+000
  0.15699892E+002  0.15250654E+001 -0.31674079E+000
  0.15565425E+002  0.16404334E+001  0.41270789E+000
  0.16235505E+002  0.97723627E+000  0.78693462E+000
  0.16614826E+002  0.58866138E+000  0.80688886E+000
  0.17003119E+002  0.16801372E+000  0.19114163E+000
  0.16848054E+002  0.10445727E+000 -0.77932616E+000
  0.17229356E+002 -0.22402288E+000  0.28935932E-001
  0.16954829E+002 -0.18524629E-001 -0.15537433E+001
  0.16791700E+002  0.39239922E+000 -0.55822104E+000
  0.16530922E+002  0.68764548E+000 -0.50471890E+000
  0.15828035E+002  0.13875030E+001 -0.27460477E+000
  0.15703518E+002  0.14965180E+001  0.36466777E+000
  0.16339838E+002  0.86549728E+000  0.68321023E+000
  0.16681399E+002  0.51850341E+000  0.70209831E+000
  0.16970547E+002  0.20634535E+000  0.37060227E+000
  0.16854536E+002  0.98445659E-001 -0.76774586E+000
  0.17236685E+002 -0.21644547E+000 -0.40361649E+000
  0.17095415E+002 -0.12948738E+000 -0.14776491E+001
  0.16852618E+002  0.32547934E+000 -0.45753869E+000
  0.16636023E+002  0.56475134E+000 -0.40021947E+000
  0.16022051E+002  0.11771596E+001 -0.22127072E+000
  0.15913725E+002  0.12741642E+001  0.30031340E+000
  0.16468038E+002  0.72430237E+000  0.55794445E+000
  0.16752727E+002  0.44166703E+000  0.58915608E+000
  0.16996906E+002  0.20020651E+000  0.20236918E+000
  0.16847642E+002  0.11803948E+000 -0.74711975E+000
  0.17250140E+002 -0.30458370E+000 -0.28359965E+000
  0.17021019E+002 -0.11547279E-001 -0.67500015E+000
  0.16915662E+002  0.25441934E+000 -0.35345012E+000
  0.16755939E+002  0.42291434E+000 -0.27984039E+000
  0.16269993E+002  0.90902095E+000 -0.15440582E+000
  0.16183096E+002  0.98613273E+000  0.22146952E+000
  0.16615711E+002  0.55938248E+000  0.41243911E+000
  0.16827294E+002  0.35945919E+000  0.47034345E+000
  0.17004955E+002  0.16101141E+000  0.20269005E+000
  0.16859816E+002  0.98982222E-001 -0.73585683E+000
  0.17241189E+002 -0.27603229E+000 -0.22490531E+000
  0.17061498E+002 -0.18848329E-001 -0.72240923E+000
  0.16752976E+002  0.40580000E+000 -0.63316717E+000
  0.16882512E+002  0.27087622E+000 -0.15291000E+000
  0.16550643E+002  0.59746496E+000 -0.80350973E-001
  0.16485375E+002  0.65771006E+000  0.13806808E+000
  0.16772036E+002  0.38161578E+000  0.25813213E+000
  0.16679537E+002  0.49715483E+000  0.73043968E+000
  0.17054967E+002  0.12396258E+000  0.84894852E-001
  0.16895933E+002  0.35278827E-001 -0.72391801E+000
  0.17236096E+002 -0.26750865E+000 -0.16809754E+000
  0.17166448E+002 -0.15789125E+000 -0.11124476E+001
  0.16834440E+002  0.31212839E+000 -0.51278712E+000
  0.17006524E+002  0.11785480E+000 -0.27111488E-001
  0.16832444E+002  0.27585827E+000 -0.13289771E-001
  0.16787693E+002  0.31921847E+000  0.56265730E-001
  0.16925190E+002  0.20206389E+000  0.10462562E+000
  0.16775197E+002  0.38859585E+000  0.56960507E+000
  0.17060542E+002  0.96904523E-001  0.95781678E-001
  0.16895881E+002  0.38620096E-001 -0.70943459E+000
  0.17231695E+002 -0.26312736E+000 -0.12122656E+000
  0.17149754E+002 -0.12140789E+000 -0.69730971E+000
  0.16911862E+002  0.22050414E+000 -0.37858959E+000
  0.17119766E+002 -0.26789348E-001  0.90171708E-001
  0.17087435E+002 -0.26692952E-001  0.53748217E-001
  0.17059576E+002  0.16080405E-002 -0.19403535E-001
  0.17065894E+002  0.30743793E-001 -0.43982865E-001
  0.16863901E+002  0.28499265E+000  0.41911090E+000
  0.17087799E+002  0.67130480E-001  0.32523433E-001
  0.16896769E+002  0.40472340E-001 -0.69020154E+000
  0.17238973E+002 -0.30577304E+000 -0.38929657E+000
  0.17201964E+002 -0.16940142E+000 -0.88711883E-001
  0.16981951E+002  0.13257380E+000 -0.25311663E+000
  0.17215815E+002 -0.15541119E+000  0.19296032E+000
  0.17291389E+002 -0.28869072E+000  0.10459189E+000
  0.17276584E+002 -0.27191356E+000 -0.80105246E-001
  0.17184081E+002 -0.12108577E+000 -0.16983472E+000
  0.16943741E+002  0.18601121E+000  0.27900111E+000
  0.17192732E+002 -0.36680325E-001 -0.22531286E+000
  0.16939963E+002 -0.43052417E-001 -0.68482741E+000
  0.17220356E+002 -0.24775084E+000 -0.27536224E+000
  0.16995952E+002  0.64122169E-001 -0.28100490E+000
  0.17045009E+002  0.51811304E-001 -0.13826665E+000
  0.17292117E+002 -0.26430199E+000  0.28572086E+000
  0.17436374E+002 -0.49124312E+000  0.14105213E+000
  0.17430907E+002 -0.48517956E+000 -0.12594901E+000
  0.17277250E+002 -0.24947575E+000 -0.27654929E+000
  0.17015413E+002  0.95351493E-001  0.15146440E+000
  0.16954789E+002  0.19240348E+000  0.16478397E+000
  0.17044702E+002 -0.11823586E+000 -0.33875411E-001
  0.17212938E+002 -0.22692130E+000 -0.18403704E+000
  0.16996663E+002  0.58902397E-001 -0.12612510E+000
  0.17099904E+002 -0.22712201E-001 -0.60288172E-001
  0.17346177E+002 -0.34798102E+000  0.35273630E+000
  0.17524874E+002 -0.63080439E+000  0.16913817E+000
  0.17526274E+002 -0.63431566E+000 -0.15841058E+000
  0.17344459E+002 -0.35058050E+000 -0.35945135E+000
  0.17076491E+002  0.14600064E-001  0.56277390E-001
  0.16951543E+002  0.19075033E+000  0.11701162E+000
  0.17030013E+002 -0.92106480E-001 -0.18577893E-001
  0.17196484E+002 -0.18722678E+000 -0.12813843E+000
  0.17001072E+002  0.52924536E-001  0.51849875E+000
  0.17146712E+002 -0.86460247E-001  0.33344665E-001
  0.17381157E+002 -0.40811720E+000  0.39644520E+000
  0.17566969E+002 -0.71013097E+000  0.18073303E+000
  0.17573007E+002 -0.72040476E+000 -0.17565678E+000
  0.17388989E+002 -0.42483277E+000 -0.41694409E+000
  0.17129515E+002 -0.57779765E-001 -0.45675319E-001
  0.16949836E+002  0.18475940E+000  0.72924878E-001
  0.17018620E+002 -0.71784449E-001 -0.81752611E-003
