# vtk DataFile Version 2.0

ASCII
 
DATASET POLYDATA
POINTS 150 double
  0.19238526E+000  0.43325007E-001  0.11318111E+003
  0.14199846E+002 -0.14917335E+002  0.10082200E+003
  0.24185241E+002 -0.25565150E+002  0.88712644E+002
  0.32582173E+002 -0.34430089E+002  0.76539968E+002
  0.36676032E+002 -0.38715299E+002  0.64223278E+002
  0.36658015E+002 -0.38636920E+002  0.51959028E+002
  0.32538554E+002 -0.34285647E+002  0.39676954E+002
  0.24155773E+002 -0.25477021E+002  0.27442721E+002
  0.14135251E+002 -0.14918104E+002  0.15267744E+002
  0.18005184E-003  0.47447191E-004  0.30001810E+001
 -0.10804454E+001 -0.42728847E+001  0.11316577E+003
  0.11031632E+002 -0.17988181E+002  0.10083856E+003
  0.21920020E+002 -0.27676835E+002  0.88725265E+002
  0.30779374E+002 -0.36097195E+002  0.76538137E+002
  0.35036775E+002 -0.40264931E+002  0.64221419E+002
  0.34991528E+002 -0.40221581E+002  0.51959468E+002
  0.30640945E+002 -0.36063454E+002  0.39676803E+002
  0.21662681E+002 -0.27826351E+002  0.27444651E+002
  0.10877689E+002 -0.18022664E+002  0.15267890E+002
 -0.32685513E+001 -0.30925451E+001  0.29645883E+001
 -0.98470408E+000 -0.42555883E+001  0.11316292E+003
  0.10875210E+002 -0.18184665E+002  0.10080913E+003
  0.21584932E+002 -0.28061858E+002  0.88717581E+002
  0.30288423E+002 -0.36636978E+002  0.76531300E+002
  0.34463983E+002 -0.40874536E+002  0.64217808E+002
  0.34418276E+002 -0.40829277E+002  0.51963966E+002
  0.30148573E+002 -0.36598820E+002  0.39685635E+002
  0.21323793E+002 -0.28205404E+002  0.27453815E+002
  0.10721240E+002 -0.18213208E+002  0.15267980E+002
 -0.31557220E+001 -0.30320466E+001  0.29555654E+001
 -0.91881021E+000 -0.42385456E+001  0.11316469E+003
  0.10697454E+002 -0.18370904E+002  0.10080567E+003
  0.21231731E+002 -0.28428306E+002  0.88712127E+002
  0.29772466E+002 -0.37147508E+002  0.76516711E+002
  0.33872900E+002 -0.41467188E+002  0.64215087E+002
  0.33828657E+002 -0.41434780E+002  0.51970186E+002
  0.29635189E+002 -0.37128108E+002  0.39699857E+002
  0.20971005E+002 -0.28576537E+002  0.27467169E+002
  0.10559196E+002 -0.18398661E+002  0.15270505E+002
 -0.30415047E+001 -0.29711403E+001  0.29469830E+001
 -0.85133525E+000 -0.42186835E+001  0.11316777E+003
  0.10519253E+002 -0.18550822E+002  0.10080912E+003
  0.20874595E+002 -0.28786331E+002  0.88707400E+002
  0.29250097E+002 -0.37647710E+002  0.76503045E+002
  0.33273740E+002 -0.42048813E+002  0.64212531E+002
  0.33230368E+002 -0.42028113E+002  0.51975349E+002
  0.29114690E+002 -0.37645946E+002  0.39712128E+002
  0.20613383E+002 -0.28939144E+002  0.27478198E+002
  0.10393397E+002 -0.18578969E+002  0.15275560E+002
 -0.29265322E+001 -0.29087304E+001  0.29378825E+001
 -0.78162147E+000 -0.41973576E+001  0.11316802E+003
  0.10336082E+002 -0.18720505E+002  0.10083289E+003
  0.20513763E+002 -0.29136183E+002  0.88703614E+002
  0.28722169E+002 -0.38138566E+002  0.76491209E+002
  0.32668826E+002 -0.42621766E+002  0.64210708E+002
  0.32626013E+002 -0.42611470E+002  0.51978896E+002
  0.28588313E+002 -0.38153127E+002  0.39721577E+002
  0.20251318E+002 -0.29293401E+002  0.27486598E+002
  0.10225607E+002 -0.18752994E+002  0.15276765E+002
 -0.28101697E+001 -0.28458641E+001  0.29323048E+001
 -0.70962423E+000 -0.41737480E+001  0.11316803E+003
  0.10155749E+002 -0.18891356E+002  0.10082184E+003
  0.20149411E+002 -0.29478096E+002  0.88701185E+002
  0.28189339E+002 -0.38620892E+002  0.76481960E+002
  0.32059202E+002 -0.43187058E+002  0.64210118E+002
  0.32017003E+002 -0.43185900E+002  0.51980340E+002
  0.28057116E+002 -0.38650349E+002  0.39727468E+002
  0.19885168E+002 -0.29639465E+002  0.27491977E+002
  0.10055971E+002 -0.18920626E+002  0.15277505E+002
 -0.26922891E+001 -0.27820798E+001  0.29275075E+001
 -0.63598783E+000 -0.41474744E+001  0.11316686E+003
  0.99719518E+001 -0.19051729E+002  0.10083829E+003
  0.19781500E+002 -0.29812110E+002  0.88700199E+002
  0.27651823E+002 -0.39094981E+002  0.76475627E+002
  0.31445974E+002 -0.43745729E+002  0.64210929E+002
  0.31404614E+002 -0.43752325E+002  0.51979558E+002
  0.27521423E+002 -0.39137646E+002  0.39729678E+002
  0.19515037E+002 -0.29977230E+002  0.27494339E+002
  0.98829871E+001 -0.19083036E+002  0.15276865E+002
 -0.25725196E+001 -0.27177194E+001  0.29277133E+001
 -0.55919260E+000 -0.41189765E+001  0.11316599E+003
  0.97919537E+001 -0.19203221E+002  0.10086725E+003
  0.19409798E+002 -0.30138077E+002  0.88700513E+002
  0.27109486E+002 -0.39560679E+002  0.76472269E+002
  0.30828656E+002 -0.44296966E+002  0.64213137E+002
  0.30788453E+002 -0.44309973E+002  0.51976637E+002
  0.26981184E+002 -0.39614604E+002  0.39728365E+002
  0.19140812E+002 -0.30306360E+002  0.27494001E+002
  0.97074949E+001 -0.19239505E+002  0.15274834E+002
 -0.24507479E+001 -0.26527064E+001  0.29287673E+001
 -0.47875237E+000 -0.40889594E+001  0.11316282E+003
  0.96076219E+001 -0.19352684E+002  0.10087955E+003
  0.19033956E+002 -0.30455760E+002  0.88701857E+002
  0.26561127E+002 -0.40016455E+002  0.76470909E+002
  0.30204904E+002 -0.44837641E+002  0.64215844E+002
  0.30166009E+002 -0.44855584E+002  0.51972729E+002
  0.26434946E+002 -0.40079435E+002  0.39724917E+002
  0.18762265E+002 -0.30626348E+002  0.27491438E+002
  0.95298671E+001 -0.19389724E+002  0.15271469E+002
 -0.23267205E+001 -0.25875214E+001  0.29305227E+001
 -0.39462664E+000 -0.40563280E+001  0.11316249E+003
  0.94261331E+001 -0.19495487E+002  0.10089959E+003
  0.18653571E+002 -0.30764763E+002  0.88703775E+002
  0.26006289E+002 -0.40461498E+002  0.76471283E+002
  0.29573091E+002 -0.45365199E+002  0.64218783E+002
  0.29535504E+002 -0.45386649E+002  0.51968225E+002
  0.25882046E+002 -0.40531261E+002  0.39719906E+002
  0.18376969E+002 -0.30934273E+002  0.27491146E+002
  0.93509614E+001 -0.19533593E+002  0.15261916E+002
 -0.22007944E+001 -0.25215655E+001  0.29326679E+001
 -0.30687900E+000 -0.40205668E+001  0.11316155E+003
  0.92423451E+001 -0.19634673E+002  0.10092754E+003
  0.18264181E+002 -0.31060170E+002  0.88698683E+002
  0.25444291E+002 -0.40894515E+002  0.76472707E+002
  0.28928218E+002 -0.45872770E+002  0.64221332E+002
  0.28891552E+002 -0.45896308E+002  0.51963957E+002
  0.25321533E+002 -0.40968772E+002  0.39714365E+002
  0.17984829E+002 -0.31229562E+002  0.27493580E+002
  0.91692782E+001 -0.19671724E+002  0.15253749E+002
 -0.20736972E+001 -0.24542099E+001  0.29402853E+001
 -0.21416697E+000 -0.39843908E+001  0.11316313E+003
  0.90579645E+001 -0.19766091E+002  0.10095698E+003
  0.17871562E+002 -0.31348206E+002  0.88697282E+002
  0.24874608E+002 -0.41313968E+002  0.76474471E+002
  0.28271664E+002 -0.46360520E+002  0.64223021E+002
  0.28235357E+002 -0.46384802E+002  0.51960586E+002
  0.24752586E+002 -0.41390336E+002  0.39709014E+002
  0.17589693E+002 -0.31516319E+002  0.27491854E+002
  0.89856872E+001 -0.19803639E+002  0.15245710E+002
 -0.19451311E+001 -0.23863288E+001  0.29480613E+001
 -0.11700953E+000 -0.39462901E+001  0.11316349E+003
  0.88688963E+001 -0.19886539E+002  0.10095540E+003
  0.17473072E+002 -0.31625802E+002  0.88693888E+002
  0.24298411E+002 -0.41720647E+002  0.76476856E+002
  0.27604807E+002 -0.46829516E+002  0.64224062E+002
  0.27568366E+002 -0.46853590E+002  0.51958323E+002
  0.24176092E+002 -0.41796972E+002  0.39704337E+002
  0.17190395E+002 -0.31793267E+002  0.27489562E+002
  0.88000596E+001 -0.19929124E+002  0.15239115E+002
 -0.18152786E+001 -0.23175499E+001  0.29499594E+001
 -0.16557383E-001 -0.39064057E+001  0.11316411E+003
  0.86789864E+001 -0.20001998E+002  0.10096194E+003
  0.17073536E+002 -0.31898911E+002  0.88695980E+002
  0.23717001E+002 -0.42116380E+002  0.76479689E+002
  0.26932160E+002 -0.47285871E+002  0.64225064E+002
  0.26895450E+002 -0.47309485E+002  0.51956899E+002
  0.23593854E+002 -0.42191448E+002  0.39700349E+002
  0.16788146E+002 -0.32062173E+002  0.27486425E+002
  0.86063542E+001 -0.20040803E+002  0.15246316E+002
 -0.16842011E+001 -0.22478589E+001  0.29512666E+001
  
POLYGONS 126 630
      4      0      1     11     10
      4      1      2     12     11
      4      2      3     13     12
      4      3      4     14     13
      4      4      5     15     14
      4      5      6     16     15
      4      6      7     17     16
      4      7      8     18     17
      4      8      9     19     18
      4     10     11     21     20
      4     11     12     22     21
      4     12     13     23     22
      4     13     14     24     23
      4     14     15     25     24
      4     15     16     26     25
      4     16     17     27     26
      4     17     18     28     27
      4     18     19     29     28
      4     20     21     31     30
      4     21     22     32     31
      4     22     23     33     32
      4     23     24     34     33
      4     24     25     35     34
      4     25     26     36     35
      4     26     27     37     36
      4     27     28     38     37
      4     28     29     39     38
      4     30     31     41     40
      4     31     32     42     41
      4     32     33     43     42
      4     33     34     44     43
      4     34     35     45     44
      4     35     36     46     45
      4     36     37     47     46
      4     37     38     48     47
      4     38     39     49     48
      4     40     41     51     50
      4     41     42     52     51
      4     42     43     53     52
      4     43     44     54     53
      4     44     45     55     54
      4     45     46     56     55
      4     46     47     57     56
      4     47     48     58     57
      4     48     49     59     58
      4     50     51     61     60
      4     51     52     62     61
      4     52     53     63     62
      4     53     54     64     63
      4     54     55     65     64
      4     55     56     66     65
      4     56     57     67     66
      4     57     58     68     67
      4     58     59     69     68
      4     60     61     71     70
      4     61     62     72     71
      4     62     63     73     72
      4     63     64     74     73
      4     64     65     75     74
      4     65     66     76     75
      4     66     67     77     76
      4     67     68     78     77
      4     68     69     79     78
      4     70     71     81     80
      4     71     72     82     81
      4     72     73     83     82
      4     73     74     84     83
      4     74     75     85     84
      4     75     76     86     85
      4     76     77     87     86
      4     77     78     88     87
      4     78     79     89     88
      4     80     81     91     90
      4     81     82     92     91
      4     82     83     93     92
      4     83     84     94     93
      4     84     85     95     94
      4     85     86     96     95
      4     86     87     97     96
      4     87     88     98     97
      4     88     89     99     98
      4     90     91    101    100
      4     91     92    102    101
      4     92     93    103    102
      4     93     94    104    103
      4     94     95    105    104
      4     95     96    106    105
      4     96     97    107    106
      4     97     98    108    107
      4     98     99    109    108
      4    100    101    111    110
      4    101    102    112    111
      4    102    103    113    112
      4    103    104    114    113
      4    104    105    115    114
      4    105    106    116    115
      4    106    107    117    116
      4    107    108    118    117
      4    108    109    119    118
      4    110    111    121    120
      4    111    112    122    121
      4    112    113    123    122
      4    113    114    124    123
      4    114    115    125    124
      4    115    116    126    125
      4    116    117    127    126
      4    117    118    128    127
      4    118    119    129    128
      4    120    121    131    130
      4    121    122    132    131
      4    122    123    133    132
      4    123    124    134    133
      4    124    125    135    134
      4    125    126    136    135
      4    126    127    137    136
      4    127    128    138    137
      4    128    129    139    138
      4    130    131    141    140
      4    131    132    142    141
      4    132    133    143    142
      4    133    134    144    143
      4    134    135    145    144
      4    135    136    146    145
      4    136    137    147    146
      4    137    138    148    147
      4    138    139    149    148
  
CELL_DATA 126
SCALARS Gamma double
LOOKUP_TABLE default
  0.54305895E+002
  0.10120549E+003
  0.74047015E+002
  0.87386035E+002
  0.10216188E+003
  0.10080820E+003
  0.91425737E+002
  0.10610670E+003
  0.30638356E+002
  0.54305895E+002
  0.10120549E+003
  0.74047015E+002
  0.87386035E+002
  0.10216188E+003
  0.10080820E+003
  0.91425737E+002
  0.10610670E+003
  0.30638356E+002
  0.53124638E+002
  0.99545566E+002
  0.72503410E+002
  0.85940782E+002
  0.10101857E+003
  0.99434899E+002
  0.89869162E+002
  0.10439297E+003
  0.30010144E+002
  0.51647466E+002
  0.97738212E+002
  0.70404471E+002
  0.84394105E+002
  0.10013231E+003
  0.97654972E+002
  0.87943123E+002
  0.10280359E+003
  0.29406983E+002
  0.50133611E+002
  0.95802285E+002
  0.68396894E+002
  0.82775051E+002
  0.98966935E+002
  0.95623256E+002
  0.85937736E+002
  0.10113575E+003
  0.28760945E+002
  0.47126770E+002
  0.91081558E+002
  0.64599049E+002
  0.78726788E+002
  0.94621029E+002
  0.90646486E+002
  0.81452395E+002
  0.96570826E+002
  0.27272932E+002
  0.40307935E+002
  0.78883779E+002
  0.55757413E+002
  0.68182051E+002
  0.82010533E+002
  0.78109832E+002
  0.70331007E+002
  0.84043411E+002
  0.23558086E+002
  0.31180205E+002
  0.61861691E+002
  0.43729599E+002
  0.53402917E+002
  0.64079181E+002
  0.60762635E+002
  0.54966018E+002
  0.66251422E+002
  0.18425397E+002
  0.21751674E+002
  0.43748467E+002
  0.31092012E+002
  0.37702419E+002
  0.44954690E+002
  0.42522550E+002
  0.38757463E+002
  0.47116865E+002
  0.12995209E+002
  0.12940546E+002
  0.26383846E+002
  0.18957153E+002
  0.22682258E+002
  0.26751777E+002
  0.25299876E+002
  0.23305827E+002
  0.28582989E+002
  0.78166061E+001
  0.55517334E+001
  0.11524444E+002
  0.84253451E+001
  0.98669053E+001
  0.11443381E+002
  0.10857547E+002
  0.10153410E+002
  0.12534465E+002
  0.33987728E+001
  0.10796506E+001
  0.22864924E+001
  0.17123151E+001
  0.19508177E+001
  0.22107269E+001
  0.21117534E+001
  0.20087758E+001
  0.24850141E+001
  0.67029763E+000
  0.12168383E-001
  0.26361473E-001
  0.20268502E-001
  0.22122473E-001
  0.24323726E-001
  0.23479501E-001
  0.22930704E-001
  0.28397287E-001
  0.76470951E-002
  0.00000000E+000
  0.00000000E+000
  0.00000000E+000
  0.00000000E+000
  0.00000000E+000
  0.00000000E+000
  0.00000000E+000
  0.00000000E+000
  0.00000000E+000
POINT_DATA 150
VECTORS Uconv double
  0.00000000E+000  0.00000000E+000  0.00000000E+000
  0.00000000E+000  0.00000000E+000  0.00000000E+000
  0.00000000E+000  0.00000000E+000  0.00000000E+000
  0.00000000E+000  0.00000000E+000  0.00000000E+000
  0.00000000E+000  0.00000000E+000  0.00000000E+000
  0.00000000E+000  0.00000000E+000  0.00000000E+000
  0.00000000E+000  0.00000000E+000  0.00000000E+000
  0.00000000E+000  0.00000000E+000  0.00000000E+000
  0.00000000E+000  0.00000000E+000  0.00000000E+000
  0.00000000E+000  0.00000000E+000  0.00000000E+000
  0.00000000E+000  0.00000000E+000  0.00000000E+000
  0.00000000E+000  0.00000000E+000  0.00000000E+000
  0.00000000E+000  0.00000000E+000  0.00000000E+000
  0.00000000E+000  0.00000000E+000  0.00000000E+000
  0.00000000E+000  0.00000000E+000  0.00000000E+000
  0.00000000E+000  0.00000000E+000  0.00000000E+000
  0.00000000E+000  0.00000000E+000  0.00000000E+000
  0.00000000E+000  0.00000000E+000  0.00000000E+000
  0.00000000E+000  0.00000000E+000  0.00000000E+000
  0.00000000E+000  0.00000000E+000  0.00000000E+000
  0.17252439E+002 -0.28564021E+000 -0.28488106E+000
  0.16935041E+002 -0.71269324E-001 -0.29435209E+001
  0.16695075E+002  0.52843497E+000 -0.76837644E+000
  0.16418367E+002  0.87229442E+000 -0.68370128E+000
  0.15809571E+002  0.14902314E+001 -0.36115666E+000
  0.15684938E+002  0.16005467E+001  0.44982197E+000
  0.16213135E+002  0.10653417E+001  0.88320392E+000
  0.16580094E+002  0.65960666E+000  0.91633779E+000
  0.16991824E+002  0.24499701E+000  0.89757494E-002
  0.16799833E+002  0.11275813E+000 -0.90229696E+000
  0.17250749E+002 -0.28401260E+000 -0.32610826E+000
  0.17120114E+002 -0.11381057E+000 -0.24386222E+001
  0.16735976E+002  0.48725067E+000 -0.70396720E+000
  0.16442385E+002  0.84737184E+000 -0.65239088E+000
  0.15790136E+002  0.15174902E+001 -0.35918879E+000
  0.15667078E+002  0.16283757E+001  0.44696338E+000
  0.16243309E+002  0.10376002E+001  0.84611419E+000
  0.16627275E+002  0.61237191E+000  0.84234769E+000
  0.17020708E+002  0.26783788E+000  0.99699641E-001
  0.16806888E+002  0.10670813E+000 -0.89521722E+000
  0.17226596E+002 -0.20867883E+000 -0.69722972E-001
  0.17222698E+002 -0.24889596E+000 -0.28569257E+001
  0.16783374E+002  0.43738246E+000 -0.62252268E+000
  0.16490462E+002  0.79373097E+000 -0.60204592E+000
  0.15829293E+002  0.14801234E+001 -0.34096432E+000
  0.15713121E+002  0.15867470E+001  0.42467018E+000
  0.16304660E+002  0.97400556E+000  0.77972732E+000
  0.16681817E+002  0.55549837E+000  0.75565469E+000
  0.16975166E+002  0.20129722E+000  0.34081258E+000
  0.16814053E+002  0.10108567E+000 -0.88778476E+000
  0.17224974E+002 -0.20633773E+000 -0.68075776E-001
  0.16962154E+002  0.57619901E-001 -0.11882755E+001
  0.16835545E+002  0.38063859E+000 -0.53705671E+000
  0.16564857E+002  0.70789278E+000 -0.52339932E+000
  0.15936761E+002  0.13658879E+001 -0.30467970E+000
  0.15833077E+002  0.14628888E+001  0.38094520E+000
  0.16398094E+002  0.87259247E+000  0.68341137E+000
  0.16742737E+002  0.48992934E+000  0.65773768E+000
  0.16992222E+002  0.18163511E+000  0.33331496E+000
  0.16820921E+002  0.94825197E-001 -0.88032625E+000
  0.17222810E+002 -0.20297215E+000 -0.65397071E-001
  0.17199423E+002 -0.23602884E+000 -0.24424271E+001
  0.16891742E+002  0.31772314E+000 -0.44390387E+000
  0.16663120E+002  0.59214038E+000 -0.42253286E+000
  0.16113046E+002  0.11720287E+001 -0.25076048E+000
  0.16026828E+002  0.12544883E+001  0.31654273E+000
  0.16522385E+002  0.73527200E+000  0.55970584E+000
  0.16808707E+002  0.41711087E+000  0.55070023E+000
  0.17093300E+002  0.22932063E+000  0.38387630E+000
  0.16823985E+002  0.95729544E-001 -0.86946450E+000
  0.17220827E+002 -0.20028260E+000 -0.43663391E-001
  0.17147077E+002 -0.15310624E+000 -0.17429658E+001
  0.16950534E+002  0.25006845E+000 -0.34522922E+000
  0.16780287E+002  0.45153524E+000 -0.30396816E+000
  0.16347225E+002  0.90922591E+000 -0.18420711E+000
  0.16281737E+002  0.97364367E+000  0.23613338E+000
  0.16668089E+002  0.56888413E+000  0.41535853E+000
  0.16877979E+002  0.33881089E+000  0.43697470E+000
  0.17082890E+002  0.18683206E+000  0.42123088E+000
  0.16829674E+002  0.89595450E-001 -0.86052307E+000
  0.17218811E+002 -0.19835521E+000 -0.41318381E-001
  0.17102335E+002 -0.77815673E-001 -0.11028431E+001
  0.17010282E+002  0.17928875E+000 -0.24347257E+000
  0.16908587E+002  0.29449617E+000 -0.17462322E+000
  0.16616915E+002  0.60013067E+000 -0.10774058E+000
  0.16573079E+002  0.64505845E+000  0.14543508E+000
  0.16826592E+002  0.38351901E+000  0.25750434E+000
  0.16948824E+002  0.25647861E+000  0.31936017E+000
  0.17081283E+002  0.15013909E+000  0.39694234E+000
  0.16835338E+002  0.83361653E-001 -0.85065317E+000
  0.17238130E+002 -0.26274608E+000 -0.34142168E+000
  0.17096628E+002 -0.54358853E-001 -0.72415044E+000
  0.17069277E+002  0.10710376E+000 -0.14120513E+000
  0.17038069E+002  0.13136280E+000 -0.42918411E-001
  0.16892149E+002  0.27463335E+000 -0.29728281E-001
  0.16868379E+002  0.30053745E+000  0.53322722E-001
  0.16985251E+002  0.19161651E+000  0.97344667E-001
  0.17018386E+002  0.17333240E+000  0.20193907E+000
  0.17086633E+002  0.11858497E+000  0.32187780E+000
  0.16868015E+002  0.26581820E-001 -0.84483414E+000
  0.17229674E+002 -0.24189046E+000 -0.24979015E+000
  0.17153490E+002 -0.96890138E-001 -0.36937415E+000
  0.17124723E+002  0.36576839E-001 -0.53543359E-001
  0.17159150E+002 -0.26514506E-001  0.82481449E-001
  0.17143641E+002 -0.35025743E-001  0.42762136E-001
  0.17136605E+002 -0.26119545E-001 -0.31998525E-001
  0.17132386E+002  0.64503037E-002 -0.54691888E-001
  0.16875405E+002  0.32240428E+000  0.46050818E+000
  0.17125529E+002  0.63698351E-001  0.38603211E-001
  0.16867037E+002  0.32515782E-001 -0.83249129E+000
  0.17219092E+002 -0.21789006E+000 -0.29080045E+000
  0.17218296E+002 -0.14974866E+000 -0.27702120E+000
  0.16981823E+002  0.18212199E+000 -0.31064132E+000
  0.17264151E+002 -0.16969776E+000  0.19891943E+000
  0.17346639E+002 -0.30321390E+000  0.10439958E+000
  0.17351944E+002 -0.30866591E+000 -0.10418515E+000
  0.17258386E+002 -0.16048123E+000 -0.18973849E+000
  0.16948592E+002  0.22779142E+000  0.33511909E+000
  0.17139903E+002  0.44192692E-001  0.37380974E-001
  0.16868502E+002  0.31049181E-001 -0.81801919E+000
  0.17211312E+002 -0.19902316E+000 -0.24655444E+000
  0.17189257E+002 -0.15665128E+000  0.73589445E+000
  0.17040822E+002  0.10375117E+000 -0.22027855E+000
  0.17346500E+002 -0.28923508E+000  0.29033405E+000
  0.17490733E+002 -0.51228349E+000  0.15370399E+000
  0.17504364E+002 -0.52758059E+000 -0.16002303E+000
  0.17358029E+002 -0.30186800E+000 -0.30855818E+000
  0.17015585E+002  0.13971738E+000  0.22017598E+000
  0.17150245E+002  0.23651407E-001  0.70832034E-002
  0.16869969E+002  0.29350988E-001 -0.80210917E+000
  0.17208408E+002 -0.19504547E+000 -0.18846305E+000
  0.16975818E+002  0.90935495E-001  0.28117472E+000
  0.17093420E+002  0.30084432E-001 -0.11760530E+000
  0.17405982E+002 -0.38227037E+000  0.36401875E+000
  0.17576854E+002 -0.65249790E+000  0.18473199E+000
  0.17595403E+002 -0.67604623E+000 -0.19686098E+000
  0.17428396E+002 -0.41096150E+000 -0.39371754E+000
  0.17075359E+002  0.58215852E-001  0.10783813E+000
  0.17158867E+002  0.65793338E-002 -0.31406744E-001
  0.16877017E+002  0.20765248E-001 -0.78383108E+000
  0.17201707E+002 -0.18194595E+000 -0.14903707E+000
  0.16988750E+002  0.94139503E-001  0.25655989E+000
  0.17139658E+002 -0.34752084E-001 -0.25665544E-001
  0.17443123E+002 -0.44685103E+000  0.41141640E+000
  0.17615284E+002 -0.72860178E+000  0.20716057E+000
  0.17636288E+002 -0.75728677E+000 -0.21871495E+000
  0.17472983E+002 -0.48821233E+000 -0.45385461E+000
  0.17126955E+002 -0.14333767E-001  0.85786398E-002
  0.16955621E+002  0.22252983E+000  0.17702151E+000
  0.16879891E+002  0.20513985E-001 -0.76331244E+000
