# vtk DataFile Version 2.0
Sgmt
ASCII
 
DATASET POLYDATA
POINTS 630 double
  0.22076862E-001  0.42031626E-002  0.11318210E+003
 -0.20461417E+002 -0.18503073E+001  0.10096471E+003
 -0.34898538E+002 -0.31611585E+001  0.88724425E+002
 -0.46972196E+002 -0.42625479E+001  0.76470067E+002
 -0.53011758E+002 -0.48157173E+001  0.64226037E+002
 -0.53012671E+002 -0.48168501E+001  0.51984255E+002
 -0.46971873E+002 -0.42683985E+001  0.39741403E+002
 -0.34900259E+002 -0.31638859E+001  0.27482981E+002
 -0.20467797E+002 -0.18525068E+001  0.15241403E+002
  0.13902376E-003  0.33216007E-004  0.30000914E+001
 -0.44595359E+001 -0.40215003E+000  0.11317718E+003
 -0.20865692E+002  0.25433828E+001  0.10096649E+003
 -0.35188144E+002 -0.77863150E-001  0.88728516E+002
 -0.47197975E+002 -0.18174813E+001  0.76471566E+002
 -0.53216132E+002 -0.25692186E+001  0.64226278E+002
 -0.53220182E+002 -0.25265962E+001  0.51982957E+002
 -0.47202778E+002 -0.16783816E+001  0.39737811E+002
 -0.35205235E+002  0.24812987E+000  0.27482666E+002
 -0.20870957E+002  0.26293971E+001  0.15241458E+002
 -0.40518278E+000  0.44817421E+001  0.30001563E+001
 -0.42942162E+001 -0.32202455E+000  0.11317640E+003
 -0.20644904E+002  0.29188314E+001  0.10096773E+003
 -0.35012704E+002  0.55602492E+000  0.88729337E+002
 -0.47052368E+002 -0.96697119E+000  0.76472316E+002
 -0.53083325E+002 -0.16102140E+001  0.64226646E+002
 -0.53086596E+002 -0.15675302E+001  0.51982592E+002
 -0.47054675E+002 -0.82781926E+000  0.39737049E+002
 -0.35023919E+002  0.88225870E+000  0.27481831E+002
 -0.20648728E+002  0.30049768E+001  0.15241049E+002
 -0.15258122E+000  0.44882590E+001  0.30001805E+001
 -0.41379509E+001 -0.24237253E+000  0.11317908E+003
 -0.20418024E+002  0.32946401E+001  0.10095543E+003
 -0.34823794E+002  0.11946579E+001  0.88715240E+002
 -0.46897883E+002 -0.10644928E+000  0.76464404E+002
 -0.52942628E+002 -0.63774320E+000  0.64219705E+002
 -0.52944645E+002 -0.59427512E+000  0.51975939E+002
 -0.46899116E+002  0.34812611E-001  0.39731384E+002
 -0.34831779E+002  0.15216146E+001  0.27482776E+002
 -0.20419895E+002  0.33813999E+001  0.15241368E+002
  0.10031749E+000  0.44933055E+001  0.30003633E+001
 -0.39768679E+001 -0.16206957E+000  0.11318092E+003
 -0.20182829E+002  0.36687892E+001  0.10094665E+003
 -0.34621777E+002  0.18309397E+001  0.88705037E+002
 -0.46723914E+002  0.75078223E+000  0.76458720E+002
 -0.52779781E+002  0.33080566E+000  0.64215124E+002
 -0.52780915E+002  0.37464871E+000  0.51972079E+002
 -0.46725127E+002  0.89385136E+000  0.39728572E+002
 -0.34627786E+002  0.21586803E+001  0.27484037E+002
 -0.20184011E+002  0.37560750E+001  0.15241853E+002
  0.35344276E+000  0.44969428E+001  0.30003683E+001
 -0.38106481E+001 -0.81322015E-001  0.11318172E+003
 -0.19940138E+002  0.40412226E+001  0.10094201E+003
 -0.34408380E+002  0.24647690E+001  0.88699893E+002
 -0.46531266E+002  0.16043460E+001  0.76455540E+002
 -0.52595590E+002  0.12949511E+001  0.64212895E+002
 -0.52596208E+002  0.13388384E+001  0.51970720E+002
 -0.46532720E+002  0.17487123E+001  0.39728082E+002
 -0.34412618E+002  0.27932079E+001  0.27484348E+002
 -0.19941135E+002  0.41288783E+001  0.15242265E+002
  0.60659506E+000  0.44991174E+001  0.30003950E+001
 -0.36402386E+001 -0.33411658E-003  0.11318188E+003
 -0.19691374E+002  0.44120817E+001  0.10094063E+003
 -0.34184642E+002  0.30966112E+001  0.88698015E+002
 -0.46322166E+002  0.24550795E+001  0.76454453E+002
 -0.52391692E+002  0.22554055E+001  0.64212268E+002
 -0.52391693E+002  0.22992652E+001  0.51970628E+002
 -0.46322188E+002  0.25999025E+001  0.39728428E+002
 -0.34184622E+002  0.34253383E+001  0.27484884E+002
 -0.19691364E+002  0.44998503E+001  0.15242457E+002
  0.85967925E+000  0.44998337E+001  0.30004303E+001
  0.22076862E-001  0.42031626E-002  0.11318210E+003
  0.86350374E+001  0.18656209E+002  0.10092124E+003
  0.14731522E+002  0.31832554E+002  0.88708846E+002
  0.19836942E+002  0.42856222E+002  0.76469719E+002
  0.22380291E+002  0.48351897E+002  0.64216155E+002
  0.22377372E+002  0.48346563E+002  0.51967870E+002
  0.19832148E+002  0.42846281E+002  0.39717018E+002
  0.14728365E+002  0.31823778E+002  0.27474544E+002
  0.86323679E+001  0.18651494E+002  0.15252374E+002
  0.13902376E-003  0.33216007E-004  0.30000914E+001
  0.26152902E+001 -0.36734650E+001  0.11318317E+003
  0.12634437E+002  0.16792675E+002  0.10092132E+003
  0.17543038E+002  0.30534104E+002  0.88709781E+002
  0.22066675E+002  0.41827816E+002  0.76470181E+002
  0.24427415E+002  0.47404371E+002  0.64216259E+002
  0.24464079E+002  0.47380139E+002  0.51967524E+002
  0.22193461E+002  0.41757373E+002  0.39716353E+002
  0.17837536E+002  0.30385753E+002  0.27474753E+002
  0.12714961E+002  0.16758763E+002  0.15252565E+002
  0.40840696E+001 -0.18898027E+001  0.30057079E+001
  0.27206340E+001 -0.37198429E+001  0.11318273E+003
  0.13106725E+002  0.16562166E+002  0.10092034E+003
  0.18262014E+002  0.30212958E+002  0.88709504E+002
  0.22988339E+002  0.41423357E+002  0.76470032E+002
  0.25448927E+002  0.46956036E+002  0.64216218E+002
  0.25485144E+002  0.46931134E+002  0.51967580E+002
  0.23113807E+002  0.41350584E+002  0.39716568E+002
  0.18553743E+002  0.30059242E+002  0.27475115E+002
  0.13186591E+002  0.16526785E+002  0.15253053E+002
  0.42211956E+001 -0.19630024E+001  0.30060443E+001
  0.28143724E+001 -0.37667116E+001  0.11318243E+003
  0.13576075E+002  0.16328887E+002  0.10092934E+003
  0.18970884E+002  0.29869170E+002  0.88705550E+002
  0.23895639E+002  0.40989993E+002  0.76463614E+002
  0.26460498E+002  0.46486997E+002  0.64215291E+002
  0.26498331E+002  0.46465116E+002  0.51968598E+002
  0.24022948E+002  0.40920962E+002  0.39721190E+002
  0.19261555E+002  0.29715513E+002  0.27479350E+002
  0.13655228E+002  0.16290646E+002  0.15249708E+002
  0.43570555E+001 -0.20357365E+001  0.30037191E+001
  0.29101935E+001 -0.38120283E+001  0.11318239E+003
  0.14041262E+002  0.16089183E+002  0.10093603E+003
  0.19673665E+002  0.29518295E+002  0.88701642E+002
  0.24795728E+002  0.40546213E+002  0.76458888E+002
  0.27462071E+002  0.46001101E+002  0.64214128E+002
  0.27500611E+002  0.45980315E+002  0.51969460E+002
  0.24923440E+002  0.40477816E+002  0.39724730E+002
  0.19963031E+002  0.29362833E+002  0.27482525E+002
  0.14119286E+002  0.16048644E+002  0.15246076E+002
  0.44915977E+001 -0.21078783E+001  0.30018109E+001
  0.30088614E+001 -0.38554612E+001  0.11318239E+003
  0.14501492E+002  0.15843175E+002  0.10093948E+003
  0.20371179E+002  0.29162091E+002  0.88698883E+002
  0.25689527E+002  0.40093622E+002  0.76456143E+002
  0.28454517E+002  0.45500795E+002  0.64213053E+002
  0.28492920E+002  0.45479631E+002  0.51970055E+002
  0.25816317E+002  0.40023575E+002  0.39726889E+002
  0.20658561E+002  0.29002688E+002  0.27484388E+002
  0.14578347E+002  0.15800746E+002  0.15243455E+002
  0.46248606E+001 -0.21793052E+001  0.30006949E+001
  0.31099357E+001 -0.38968964E+001  0.11318239E+003
  0.14956740E+002  0.15591769E+002  0.10094046E+003
  0.21064248E+002  0.28801078E+002  0.88698115E+002
  0.26578104E+002  0.39634085E+002  0.76455416E+002
  0.29440072E+002  0.44990577E+002  0.64212678E+002
  0.29478047E+002  0.44968630E+002  0.51970240E+002
  0.26703530E+002  0.39561692E+002  0.39727472E+002
  0.21348939E+002  0.28636679E+002  0.27484804E+002
  0.15032658E+002  0.15547797E+002  0.15242563E+002
  0.47569287E+001 -0.22499107E+001  0.30003871E+001
  0.22076862E-001  0.42031626E-002  0.11318210E+003
  0.11839347E+002 -0.16803940E+002  0.10092475E+003
  0.20194525E+002 -0.28673577E+002  0.88707059E+002
  0.27194520E+002 -0.38602981E+002  0.76468958E+002
  0.30685443E+002 -0.43554945E+002  0.64217486E+002
  0.30683822E+002 -0.43551513E+002  0.51969388E+002
  0.27191358E+002 -0.38593752E+002  0.39721347E+002
  0.20193095E+002 -0.28662569E+002  0.27480189E+002
  0.11836139E+002 -0.16801341E+002  0.15252352E+002
  0.13902376E-003  0.33216007E-004  0.30000914E+001
 -0.18681603E+001 -0.40795455E+001  0.11318179E+003
  0.82348710E+001 -0.19348680E+002  0.10092728E+003
  0.17661364E+002 -0.30455063E+002  0.88708292E+002
  0.25186095E+002 -0.40015622E+002  0.76469029E+002
  0.28842275E+002 -0.44855429E+002  0.64217596E+002
  0.28805406E+002 -0.44878117E+002  0.51968826E+002
  0.25064435E+002 -0.40089651E+002  0.39720625E+002
  0.17392262E+002 -0.30634927E+002  0.27480271E+002
  0.81589258E+001 -0.19395200E+002  0.15252370E+002
 -0.36784697E+001 -0.25918397E+001  0.29944099E+001
 -0.17695184E+001 -0.40453652E+001  0.11318114E+003
  0.80563599E+001 -0.19494063E+002  0.10092502E+003
  0.17281787E+002 -0.30767974E+002  0.88707959E+002
  0.24632975E+002 -0.40462316E+002  0.76468723E+002
  0.28201316E+002 -0.45367077E+002  0.64217415E+002
  0.28164015E+002 -0.45389056E+002  0.51969032E+002
  0.24509968E+002 -0.40534044E+002  0.39721001E+002
  0.17009445E+002 -0.30942877E+002  0.27480685E+002
  0.79801759E+001 -0.19538840E+002  0.15252743E+002
 -0.35531405E+001 -0.25249563E+001  0.29935980E+001
 -0.16811033E+001 -0.40109964E+001  0.11318160E+003
  0.78726544E+001 -0.19629758E+002  0.10093253E+003
  0.16893176E+002 -0.31063540E+002  0.88704425E+002
  0.24064482E+002 -0.40886363E+002  0.76462990E+002
  0.27545559E+002 -0.45859677E+002  0.64215950E+002
  0.27508572E+002 -0.45882981E+002  0.51969343E+002
  0.23941698E+002 -0.40961089E+002  0.39723962E+002
  0.16617533E+002 -0.31237793E+002  0.27482514E+002
  0.77974920E+001 -0.19675283E+002  0.15249358E+002
 -0.34262477E+001 -0.24573225E+001  0.29957828E+001
 -0.15882607E+001 -0.39748992E+001  0.11318193E+003
  0.76877987E+001 -0.19760117E+002  0.10093703E+003
  0.16499327E+002 -0.31349477E+002  0.88701067E+002
  0.23489498E+002 -0.41298083E+002  0.76458710E+002
  0.26881046E+002 -0.46335508E+002  0.64214446E+002
  0.26843996E+002 -0.46358966E+002  0.51969618E+002
  0.23366394E+002 -0.41373643E+002  0.39725968E+002
  0.16220598E+002 -0.31521805E+002  0.27483906E+002
  0.76129734E+001 -0.19805620E+002  0.15245886E+002
 -0.32980521E+001 -0.23888705E+001  0.29976587E+001
[...]
CELL_DATA 1107
SCALARS Gamma double
LOOKUP_TABLE default
 -0.17070871E+001
  0.17070871E+001
 -0.48098231E+002
  0.46391144E+002
 -0.41921468E+002
 -0.61767625E+001
 -0.41650185E+002
 -0.27128347E+000
 -0.42941201E+002
  0.12910158E+001
 -0.41163127E+002
 -0.17780732E+001
 -0.41863516E+002
  0.70038832E+000
 -0.48362295E+002
  0.64987797E+001
 -0.24688323E+002
 -0.23673972E+002
 -0.24688323E+002
  0.00000000E+000
  0.17070871E+001
  0.00000000E+000
  0.46391144E+002
  0.00000000E+000
 -0.61767625E+001
  0.00000000E+000
 -0.27128347E+000
  0.00000000E+000
  0.12910158E+001
  0.00000000E+000
 -0.17780732E+001
  0.00000000E+000
  0.70038832E+000
  0.00000000E+000
  0.64987797E+001
  0.00000000E+000
 -0.23673972E+002
 -0.24688323E+002
  0.88852615E+000
  0.81856091E+000
  0.26556523E+002
  0.20723147E+002
  0.23176851E+002
 -0.27970910E+001
  0.23018859E+002
 -0.11329133E+000
  0.23725071E+002
  0.58480337E+000
  0.22745101E+002
 -0.79810264E+000
  0.23140231E+002
  0.30525857E+000
  0.26707267E+002
  0.29317436E+001
  0.13553220E+002
 -0.10519925E+002
 -0.11135103E+002
  0.64872544E+000
  0.16983547E+000
  0.17225887E+002
  0.41459856E+001
  0.14985761E+002
 -0.55696483E+000
  0.14823631E+002
  0.48838483E-001
  0.15253043E+002
  0.15539132E+000
  0.14596251E+002
 -0.14131106E+000
  0.14877618E+002
  0.23892066E-001
  0.17257262E+002
  0.55209979E+000
  0.88586096E+001
 -0.21212729E+001
 -0.22764939E+001
  0.16779964E+000
  0.20358333E-002
  0.42656912E+001
  0.48093971E-001
  0.37150864E+001
 -0.63599538E-002
  0.37625785E+001
  0.13463489E-002
  0.39157448E+001
  0.22250323E-002
  0.37758405E+001
 -0.14067937E-002
  0.37998844E+001
 -0.15175484E-003
  0.43459621E+001
  0.60219938E-002
  0.22494345E+001
 -0.24745317E-001
 -0.27059359E-001
  0.20358333E-002
  0.00000000E+000
  0.00000000E+000
  0.50129804E-001
 -0.00000000E+000
  0.00000000E+000
  0.43769850E-001
 -0.00000000E+000
  0.00000000E+000
  0.45116199E-001
 -0.00000000E+000
  0.00000000E+000
  0.47341231E-001
 -0.00000000E+000
  0.00000000E+000
  0.45934438E-001
 -0.00000000E+000
  0.00000000E+000
  0.45782683E-001
 -0.00000000E+000
  0.00000000E+000
  0.51804677E-001
 -0.00000000E+000
  0.00000000E+000
  0.27059359E-001
 -0.00000000E+000
  0.00000000E+000
 -0.00000000E+000
  0.35858887E+002
 -0.35858887E+002
  0.19308773E+002
  0.16550114E+002
  0.11990016E+002
  0.73187570E+001
  0.15452026E+002
 -0.34620097E+001
  0.19182443E+002
 -0.37304175E+001
  0.17409067E+002
  0.17733763E+001
  0.15124207E+002
  0.22848603E+001
  0.20535047E+002
 -0.54108407E+001
  0.21345165E+002
 -0.81011758E+000
  0.21345165E+002
  0.00000000E+000
 -0.35858887E+002
  0.00000000E+000
  0.16550114E+002
  0.00000000E+000
  0.73187570E+001
  0.00000000E+000
 -0.34620097E+001
  0.00000000E+000
 -0.37304175E+001
  0.00000000E+000
  0.17733763E+001
  0.00000000E+000
  0.22848603E+001
  0.00000000E+000
 -0.54108407E+001
  0.00000000E+000
 -0.81011758E+000
  0.21345165E+002
 -0.19898940E+002
 -0.15959946E+002
 -0.10318863E+002
  0.69700364E+001
 -0.63326198E+001
  0.33325139E+001
 -0.82245967E+001
 -0.15700328E+001
 -0.10264075E+002
 -0.16909396E+001
 -0.92954405E+001
  0.80474206E+000
 -0.80399623E+001
  0.10293821E+001
 -0.10972192E+002
 -0.24786105E+001
 -0.11461570E+002
 -0.32074043E+000
  0.98835952E+001
 -0.12734296E+002
 -0.32256505E+001
 -0.70919756E+001
  0.13277161E+001
 -0.43707978E+001
  0.61133605E+000
 -0.56838027E+001
 -0.25702784E+000
 -0.71110926E+001
 -0.26364967E+000
 -0.64318326E+001
  0.12548201E+000
 -0.55503317E+001
  0.14788120E+000
 -0.75239556E+001
 -0.50498659E+000
 -0.78048641E+001
 -0.39831881E-001
  0.20787311E+001
 -0.31878192E+001
 -0.37831218E-001
 -0.18745597E+001
  0.14456477E-001
 -0.12697514E+001
  0.65277625E-002
 -0.15248765E+001
 -0.19027177E-002
 -0.17864326E+001
 -0.20935815E-002
 -0.16619089E+001
  0.95830135E-003
 -0.15148379E+001
  0.81028700E-003
 -0.20138719E+001
 -0.59526030E-002
 -0.20534908E+001
 -0.21301071E-003
  0.25240302E-001
 -0.37831218E-001
 -0.00000000E+000
 -0.00000000E+000
 -0.23374740E-001
 -0.00000000E+000
 -0.00000000E+000
 -0.16846978E-001
 -0.00000000E+000
 -0.00000000E+000
 -0.18749696E-001
 -0.00000000E+000
 -0.00000000E+000
 -0.20843277E-001
 -0.00000000E+000
 -0.00000000E+000
 -0.19884976E-001
 -0.00000000E+000
 -0.00000000E+000
 -0.19074689E-001
 -0.00000000E+000
 -0.00000000E+000
 -0.25027292E-001
 -0.00000000E+000
 -0.00000000E+000
 -0.25240302E-001
 -0.00000000E+000
 -0.00000000E+000
  0.00000000E+000
  0.12817547E+002
 -0.12817547E+002
  0.26501076E+002
 -0.13683529E+002
  0.19493831E+002
  0.70072454E+001
  0.22751584E+002
 -0.32577528E+001
  0.26319041E+002
 -0.35674579E+001
  0.24993632E+002
  0.13254098E+001
  0.23411769E+002
  0.15818627E+001
  0.28743891E+002
 -0.53321225E+001
  0.78218940E+001
  0.20921997E+002
  0.78218940E+001
  0.00000000E+000
 -0.12817547E+002
  0.00000000E+000
 -0.13683529E+002
  0.00000000E+000
  0.70072454E+001
  0.00000000E+000
 -0.32577528E+001
  0.00000000E+000
 -0.35674579E+001
  0.00000000E+000
  0.13254098E+001
  0.00000000E+000
  0.15818627E+001
  0.00000000E+000
 -0.53321225E+001
  0.00000000E+000
  0.20921997E+002
  0.78218940E+001
 -0.72658137E+001
 -0.55517334E+001
 -0.14976632E+002
 -0.59727103E+001
 -0.11068486E+002
  0.30990986E+001
 -0.12884678E+002
 -0.14415602E+001
 -0.14875661E+002
 -0.15764755E+001
 -0.14136085E+002
  0.58583389E+000
 -0.13258359E+002
  0.70413672E+000
 -0.16209427E+002
 -0.23810543E+001
 -0.44231212E+001
  0.91356917E+001
  0.33987728E+001
 -0.44720828E+001
 -0.10796506E+001
 -0.92379513E+001
 -0.12068418E+001
 -0.67130300E+001
  0.57417728E+000
 -0.79160876E+001
 -0.23850265E+000
 -0.92326540E+001
 -0.25990912E+000
 -0.87457936E+001
  0.98973503E-001
 -0.81446344E+001
  0.10297754E+000
 -0.10049450E+002
 -0.47623825E+000
 -0.27284752E+001
  0.18147164E+001
  0.67029763E+000
 -0.10674822E+001
 -0.12168383E-001
 -0.22601309E+001
 -0.14193089E-001
 -0.16920466E+001
  0.60929708E-002
 -0.19286953E+001
 -0.18539712E-002
 -0.21864031E+001
 -0.22012529E-002
 -0.20882739E+001
  0.84422521E-003
 -0.19858451E+001
  0.54879671E-003
 -0.24566168E+001
 -0.54665826E-002
 -0.66265053E+000
  0.20750192E-001
  0.76470951E-002
 -0.12168383E-001
 -0.00000000E+000
 -0.00000000E+000
 -0.26361473E-001
 -0.00000000E+000
 -0.00000000E+000
 -0.20268502E-001
 -0.00000000E+000
 -0.00000000E+000
 -0.22122473E-001
 -0.00000000E+000
 -0.00000000E+000
 -0.24323726E-001
 -0.00000000E+000
 -0.00000000E+000
 -0.23479501E-001
 -0.00000000E+000
 -0.00000000E+000
 -0.22930704E-001
 -0.00000000E+000
 -0.00000000E+000
 -0.28397287E-001
 -0.00000000E+000
 -0.00000000E+000
 -0.76470951E-002
 -0.00000000E+000
 -0.00000000E+000
  0.00000000E+000
 -0.20040233E+000
  0.20040233E+000
  0.74109594E+000
 -0.94149827E+000
  0.78070767E-001
  0.66302517E+000
  0.49446752E-002
  0.73126092E-001
 -0.19044675E+000
  0.19539143E+000
 -0.29331427E+000
  0.10286752E+000
 -0.37424037E+000
  0.80926097E-001
 -0.43689611E+000
  0.62655740E-001
 -0.69632031E+000
  0.25942420E+000
 -0.69632031E+000
  0.00000000E+000
  0.20040233E+000
  0.00000000E+000
 -0.94149827E+000
  0.00000000E+000
  0.66302517E+000
  0.00000000E+000
  0.73126092E-001
  0.00000000E+000
  0.19539143E+000
  0.00000000E+000
  0.10286752E+000
  0.00000000E+000
  0.80926097E-001
  0.00000000E+000
  0.62655740E-001
  0.00000000E+000
  0.25942420E+000
 -0.69632031E+000
  0.21512839E+000
 -0.14726060E-001
 -0.48563340E+000
 -0.24073648E+000
 -0.53038082E-001
  0.23042985E+000
 -0.15984169E-001
  0.36072180E-001
  0.10058022E+000
  0.78827037E-001
  0.15986620E+000
  0.43581542E-001
  0.20739945E+000
  0.33392851E-001
  0.24299843E+000
  0.27056754E-001
  0.39032117E+000
  0.11210146E+000
 -0.30599914E+000
  0.11591051E-002
 -0.15885165E-001
 -0.21969885E+000
 -0.19878529E-001
 -0.24307034E-001
  0.35038042E-001
  0.29444707E-002
  0.88206752E-002
  0.68706243E-001
  0.13065265E-001
  0.10477999E+000
  0.75077901E-002
  0.13285900E+000
  0.53138460E-002
  0.15551724E+000
  0.43985183E-002
  0.24588546E+000
  0.21733232E-001
 -0.60113674E-001
 -0.15695824E-001
 -0.18934076E-003
 -0.35522716E-001
 -0.51637527E-004
 -0.78145232E-003
  0.29677866E-003
  0.79265796E-002
  0.11264327E-003
  0.20867785E-001
  0.12405976E-003
  0.28305413E-001
  0.70162431E-004
  0.33575191E-001
  0.44067848E-004
  0.37937774E-001
  0.35934829E-004
  0.59422186E-001
  0.24882016E-003
 -0.69148868E-003
 -0.18934076E-003
 -0.00000000E+000
 -0.00000000E+000
 -0.24097829E-003
 -0.00000000E+000
 -0.00000000E+000
  0.55800373E-004
  0.00000000E+000
  0.00000000E+000
  0.16844364E-003
 -0.00000000E+000
  0.00000000E+000
  0.29250341E-003
 -0.00000000E+000
  0.00000000E+000
  0.36266584E-003
 -0.00000000E+000
  0.00000000E+000
  0.40673368E-003
 -0.00000000E+000
  0.00000000E+000
  0.44266851E-003
 -0.00000000E+000
  0.00000000E+000
  0.69148868E-003
 -0.00000000E+000
  0.00000000E+000
 -0.00000000E+000
 -0.25764544E+000
  0.25764544E+000
 -0.23331819E+000
 -0.24327247E-001
 -0.61532412E+000
  0.38200593E+000
 -0.84669121E+000
  0.23136709E+000
 -0.10302410E+001
  0.18354976E+000
 -0.10659254E+001
  0.35684378E-001
 -0.10393581E+001
 -0.26567298E-001
 -0.89566607E+000
 -0.14369199E+000
 -0.77394066E+000
 -0.12172540E+000
 -0.77394066E+000
  0.00000000E+000
  0.25764544E+000
  0.00000000E+000
 -0.24327247E-001
  0.00000000E+000
  0.38200593E+000
  0.00000000E+000
  0.23136709E+000
  0.00000000E+000
  0.18354976E+000
  0.00000000E+000
  0.35684378E-001
  0.00000000E+000
 -0.26567298E-001
  0.00000000E+000
 -0.14369199E+000
  0.00000000E+000
 -0.12172540E+000
 -0.77394066E+000
  0.15389159E+000
  0.10375385E+000
  0.11722807E+000
  0.12336271E-001
  0.33564986E+000
  0.16358415E+000
  0.46293757E+000
  0.10407937E+000
  0.56570095E+000
  0.80786391E-001
  0.58605455E+000
  0.15330773E-001
  0.57184289E+000
 -0.12355634E-001
  0.49335495E+000
 -0.65204050E-001
  0.42721919E+000
 -0.55589640E-001
 -0.34672148E+000
  0.89847100E-001
  0.13906748E-001
  0.97873087E-001
  0.43102834E-002
  0.23445350E+000
  0.27003731E-001
  0.31918700E+000
  0.19345879E-001
  0.38308300E+000
  0.16890385E-001
  0.39173119E+000
  0.66825889E-002
  0.37732871E+000
  0.20468383E-002
  0.32045489E+000
 -0.83302305E-002
  0.26895667E+000
 -0.40914188E-002
 -0.77764804E-001
  0.13843415E-001
  0.63332842E-004
  0.18160081E-001
 -0.63821958E-005
  0.44992030E-001
  0.17178095E-003
  0.64198178E-001
  0.13973104E-003
  0.80934843E-001
  0.15372039E-003
  0.87520845E-001
  0.96587215E-004
  0.89482047E-001
  0.85635798E-004
  0.81146095E-001
  0.57217056E-005
  0.76990012E-001
  0.64664345E-004
 -0.77479209E-003
  0.63332842E-004
 -0.00000000E+000
 -0.00000000E+000
  0.56950646E-004
 -0.00000000E+000
 -0.00000000E+000
  0.22873159E-003
 -0.00000000E+000
 -0.00000000E+000
  0.36846263E-003
 -0.00000000E+000
 -0.00000000E+000
  0.52218302E-003
 -0.00000000E+000
 -0.00000000E+000
  0.61877024E-003
 -0.00000000E+000
 -0.00000000E+000
  0.70440604E-003
  0.00000000E+000
  0.00000000E+000
  0.71012774E-003
 -0.00000000E+000
  0.00000000E+000
  0.77479209E-003
 -0.00000000E+000
  0.00000000E+000
 -0.00000000E+000
  0.37062681E+001
 -0.37062681E+001
  0.51129008E+001
 -0.14066327E+001
  0.23596555E+001
  0.27532453E+001
 -0.90231521E+000
  0.32619707E+001
 -0.86890434E+000
 -0.33410872E-001
 -0.11419755E+001
  0.27307120E+000
 -0.11507506E+001
  0.87750110E-002
 -0.99547027E+000
 -0.15528028E+000
 -0.74662474E+000
 -0.24884553E+000
 -0.74662474E+000
  0.00000000E+000
 -0.37062681E+001
  0.00000000E+000
 -0.14066327E+001
  0.00000000E+000
  0.27532453E+001
  0.00000000E+000
  0.32619707E+001
  0.00000000E+000
 -0.33410872E-001
  0.00000000E+000
  0.27307120E+000
  0.00000000E+000
  0.87750110E-002
  0.00000000E+000
 -0.15528028E+000
  0.00000000E+000
 -0.24884553E+000
 -0.74662474E+000
 -0.24880234E+001
 -0.12182447E+001
 -0.29309537E+001
 -0.96370237E+000
 -0.12423426E+001
  0.10646342E+001
  0.49077463E+000
  0.15288535E+001
  0.47132115E+000
 -0.13957393E-001
  0.62560246E+000
  0.11878989E+000
  0.62852079E+000
  0.58566755E-002
  0.54372044E+000
 -0.70479926E-001
  0.40269168E+000
 -0.10781676E+000
 -0.34393307E+000
 -0.10586385E+001
 -0.15960625E+000
 -0.17904075E+001
 -0.23193333E+000
 -0.87837968E+000
  0.15260639E+000
  0.34081773E+000
  0.30965604E+000
  0.32756731E+000
 -0.70696891E-003
  0.42125617E+000
  0.25101024E-001
  0.42179459E+000
  0.53182568E-002
  0.36141177E+000
 -0.10097102E-001
  0.26858358E+000
 -0.14988574E-001
 -0.75349489E-001
 -0.15857867E+000
 -0.10275771E-002
 -0.38833566E+000
 -0.21763449E-002
 -0.23639612E+000
  0.66684911E-003
  0.70133890E-001
  0.31260352E-002
  0.69548593E-001
 -0.12167225E-003
  0.94369440E-001
  0.28017772E-003
  0.99590135E-001
  0.97561563E-004
  0.89527236E-001
 -0.34201940E-004
  0.74622044E-001
 -0.83382695E-004
 -0.72744468E-003
 -0.10275771E-002
 -0.00000000E+000
 -0.00000000E+000
 -0.32039221E-002
 -0.00000000E+000
 -0.00000000E+000
 -0.25370730E-002
 -0.00000000E+000
 -0.00000000E+000
  0.58896227E-003
  0.00000000E+000
  0.00000000E+000
  0.46729003E-003
 -0.00000000E+000
  0.00000000E+000
  0.74746775E-003
 -0.00000000E+000
  0.00000000E+000
  0.84502932E-003
 -0.00000000E+000
  0.00000000E+000
  0.81082738E-003
 -0.00000000E+000
  0.00000000E+000
  0.72744468E-003
 -0.00000000E+000
  0.00000000E+000
 -0.00000000E+000
 -0.66989976E+000
  0.66989976E+000
 -0.62258134E+000
 -0.47318420E-001
 -0.13433404E+001
  0.72075901E+000
 -0.18118542E+001
  0.46851384E+000
 -0.22649124E+001
  0.45305824E+000
 -0.28429131E+001
  0.57800070E+000
 -0.33112694E+001
  0.46835627E+000
 -0.34533972E+001
  0.14212777E+000
 -0.39676219E+001
  0.51422476E+000
 -0.39676219E+001
  0.00000000E+000
  0.66989976E+000
  0.00000000E+000
 -0.47318420E-001
  0.00000000E+000
  0.72075901E+000
  0.00000000E+000
  0.46851384E+000
  0.00000000E+000
  0.45305824E+000
  0.00000000E+000
  0.57800070E+000
  0.00000000E+000
  0.46835627E+000
  0.00000000E+000
  0.14212777E+000
  0.00000000E+000
  0.51422476E+000
 -0.39676219E+001
  0.18287892E+000
  0.48702084E+000
  0.28775271E+000
 -0.15219220E+000
  0.71857524E+000
  0.28993648E+000
  0.98803366E+000
  0.19905543E+000
  0.12461834E+001
  0.19490846E+000
  0.15662580E+001
  0.25792610E+000
  0.18242127E+001
  0.21040160E+000
  0.19005256E+001
  0.65814830E-001
  0.21779959E+001
  0.23675448E+000
 -0.17896260E+001
  0.39524310E+000
  0.91777741E-001
  0.28427754E+000
 -0.41226645E-001
  0.52408983E+000
  0.50124186E-001
  0.69652740E+000
  0.26617857E-001
  0.86250648E+000
  0.28929383E-001
  0.10856378E+001
  0.34794740E-001
  0.12661759E+001
  0.29863566E-001
  0.13238886E+001
  0.81020706E-002
  0.15341435E+001
  0.26499582E-001
 -0.25548248E+000
  0.90766224E-001
  0.10115168E-002
  0.50283900E-001
 -0.74432121E-003
  0.99817298E-001
  0.59078817E-003
  0.12629913E+000
  0.13602636E-003
  0.15504503E+000
  0.18348249E-003
  0.18965818E+000
  0.18158900E-003
  0.21936837E+000
  0.15338020E-003
  0.22746245E+000
  0.79856616E-005
  0.25397006E+000
 -0.80285949E-005
 -0.15124189E-002
  0.10115168E-002
  0.00000000E+000
  0.00000000E+000
  0.26719562E-003
 -0.00000000E+000
  0.00000000E+000
  0.85798379E-003
 -0.00000000E+000
  0.00000000E+000
  0.99401015E-003
 -0.00000000E+000
  0.00000000E+000
  0.11774926E-002
 -0.00000000E+000
  0.00000000E+000
  0.13590817E-002
 -0.00000000E+000
  0.00000000E+000
  0.15124619E-002
 -0.00000000E+000
  0.00000000E+000
  0.15204475E-002
 -0.00000000E+000
  0.00000000E+000
  0.15124189E-002
 -0.00000000E+000
  0.00000000E+000
 -0.00000000E+000
 -0.83231862E+000
  0.83231862E+000
 -0.27327394E+000
 -0.55904467E+000
  0.45305714E-001
 -0.31857966E+000
  0.42086235E+000
 -0.37555663E+000
  0.84624453E+000
 -0.42538218E+000
  0.12437362E+001
 -0.39749165E+000
  0.16236802E+001
 -0.37994404E+000
  0.17943144E+001
 -0.17063423E+000
  0.22901427E+001
 -0.49582826E+000
  0.22901427E+001
  0.00000000E+000
  0.83231862E+000
  0.00000000E+000
 -0.55904467E+000
  0.00000000E+000
 -0.31857966E+000
  0.00000000E+000
 -0.37555663E+000
  0.00000000E+000
 -0.42538218E+000
  0.00000000E+000
 -0.39749165E+000
  0.00000000E+000
 -0.37994404E+000
  0.00000000E+000
 -0.17063423E+000
  0.00000000E+000
 -0.49582826E+000
  0.22901427E+001
  0.55068136E+000
  0.28163725E+000
  0.11971541E+000
 -0.12807873E+000
 -0.21463492E-001
 -0.17740075E+000
 -0.22540287E+000
 -0.17161725E+000
 -0.45656171E+000
 -0.19422335E+000
 -0.67404207E+000
 -0.18001129E+000
 -0.88361799E+000
 -0.17036812E+000
 -0.97894398E+000
 -0.75308235E-001
 -0.12549741E+001
 -0.21979814E+000
  0.10351686E+001
  0.22309901E+000
  0.58538243E-001
  0.10441774E+000
 -0.93974613E-002
 -0.52605943E-001
 -0.20377061E-001
 -0.20052039E+000
 -0.23702803E-001
 -0.36249359E+000
 -0.32250146E-001
 -0.50971649E+000
 -0.32788387E-001
 -0.64595517E+000
 -0.34129441E-001
 -0.70040404E+000
 -0.20859365E-001
 -0.87786150E+000
 -0.42340690E-001
  0.15730711E+000
  0.57766318E-001
  0.77192537E-003
  0.48388134E-001
 -0.19277702E-004
  0.28034192E-001
 -0.23118700E-004
  0.44529298E-002
 -0.12154133E-003
 -0.27553822E-001
 -0.24339420E-003
 -0.60056554E-001
 -0.28565522E-003
 -0.93844979E-001
 -0.34101608E-003
 -0.11442138E+000
 -0.28296809E-003
 -0.15634496E+000
 -0.41710465E-003
  0.96215060E-003
  0.77192537E-003
  0.00000000E+000
  0.00000000E+000
  0.75264767E-003
 -0.00000000E+000
  0.00000000E+000
  0.72952897E-003
 -0.00000000E+000
  0.00000000E+000
  0.60798763E-003
 -0.00000000E+000
  0.00000000E+000
  0.36459343E-003
 -0.00000000E+000
  0.00000000E+000
  0.78938216E-004
 -0.00000000E+000
  0.00000000E+000
 -0.26207786E-003
 -0.00000000E+000
  0.00000000E+000
 -0.54504595E-003
 -0.00000000E+000
  0.00000000E+000
 -0.96215060E-003
 -0.00000000E+000
  0.00000000E+000
 -0.00000000E+000
  0.36685050E+001
 -0.36685050E+001
  0.21812382E+001
  0.14872668E+001
 -0.16859137E+001
  0.38671519E+001
  0.81381653E+000
 -0.24997302E+001
  0.73920750E+000
  0.74609032E-001
  0.11928582E+001
 -0.45365074E+000
  0.14877613E+001
 -0.29490310E+000
  0.16052392E+001
 -0.11747790E+000
  0.18625337E+001
 -0.25729446E+000
  0.18625337E+001
  0.00000000E+000
 -0.36685050E+001
  0.00000000E+000
  0.14872668E+001
  0.00000000E+000
  0.38671519E+001
  0.00000000E+000
 -0.24997302E+001
  0.00000000E+000
  0.74609032E-001
  0.00000000E+000
 -0.45365074E+000
  0.00000000E+000
 -0.29490310E+000
  0.00000000E+000
 -0.11747790E+000
  0.00000000E+000
 -0.25729446E+000
  0.18625337E+001
 -0.25437264E+001
 -0.11247786E+001
 -0.15466012E+001
  0.49014161E+000
  0.10668941E+001
  0.12536566E+001
 -0.48421116E+000
 -0.94862499E+000
 -0.39510355E+000
 -0.14498583E-001
 -0.65369981E+000
 -0.19505448E+000
 -0.81211640E+000
 -0.13648650E+000
 -0.87668218E+000
 -0.52912115E-001
 -0.10148554E+001
 -0.11912122E+000
  0.84767827E+000
 -0.90050424E+000
 -0.22427435E+000
 -0.38761761E+000
 -0.22745021E-001
  0.68286718E+000
  0.18317181E+000
 -0.31258589E+000
  0.46828072E-001
 -0.30611823E+000
 -0.20966235E-001
 -0.47585105E+000
 -0.25321661E-001
 -0.58572730E+000
 -0.26610256E-001
 -0.62491982E+000
 -0.13719593E-001
 -0.72128149E+000
 -0.22759551E-001
  0.12639678E+000
 -0.22082331E+000
 -0.34510427E-002
 -0.24244710E+000
 -0.11212316E-002
 -0.61478931E-001
  0.22036456E-002
 -0.17323617E-001
  0.26727576E-002
 -0.37931311E-001
 -0.35854081E-003
 -0.63160081E-001
 -0.92890887E-004
 -0.89513516E-001
 -0.25682024E-003
 -0.10306062E+000
 -0.17248752E-003
 -0.12561490E+000
 -0.20527117E-003
  0.78188161E-003
 -0.34510427E-002
 -0.00000000E+000
 -0.00000000E+000
 -0.45722743E-002
 -0.00000000E+000
 -0.00000000E+000
 -0.23686286E-002
 -0.00000000E+000
 -0.00000000E+000
  0.30412901E-003
  0.00000000E+000
  0.00000000E+000
 -0.54411804E-004
 -0.00000000E+000
  0.00000000E+000
 -0.14730269E-003
 -0.00000000E+000
  0.00000000E+000
 -0.40412293E-003
 -0.00000000E+000
  0.00000000E+000
 -0.57661044E-003
 -0.00000000E+000
  0.00000000E+000
 -0.78188161E-003
 -0.00000000E+000
  0.00000000E+000
 -0.00000000E+000