# vtk DataFile Version 2.0

ASCII
 
DATASET POLYDATA
POINTS 100 double
  0.70164293E-001  0.14243562E-001  0.11318156E+003
  0.76245166E+001  0.19102095E+002  0.10088731E+003
  0.12999775E+002  0.32624504E+002  0.88719308E+002
  0.17508569E+002  0.43920057E+002  0.76495312E+002
  0.19734197E+002  0.49502725E+002  0.64217333E+002
  0.19726646E+002  0.49482487E+002  0.51963616E+002
  0.17493847E+002  0.43878873E+002  0.39698165E+002
  0.12993309E+002  0.32595272E+002  0.27455797E+002
  0.76114372E+001  0.19090806E+002  0.15259455E+002
  0.18521908E-003  0.49325705E-004  0.30001419E+001
  0.28569039E+001 -0.35190364E+001  0.11318546E+003
  0.11711026E+002  0.17438246E+002  0.10088502E+003
  0.15879042E+002  0.31484143E+002  0.88719123E+002
  0.19793638E+002  0.43021287E+002  0.76496035E+002
  0.21829235E+002  0.48666460E+002  0.64217494E+002
  0.21860578E+002  0.48625361E+002  0.51963315E+002
  0.19911883E+002  0.42922515E+002  0.39697524E+002
  0.16176836E+002  0.31330354E+002  0.27456060E+002
  0.11788713E+002  0.17417375E+002  0.15259851E+002
  0.41802075E+001 -0.16664432E+001  0.30148535E+001
  0.29647272E+001 -0.35692344E+001  0.11318266E+003
  0.12194555E+002  0.17222911E+002  0.10087724E+003
  0.16614773E+002  0.31191539E+002  0.88717287E+002
  0.20736059E+002  0.42655167E+002  0.76494503E+002
  0.22871633E+002  0.48259336E+002  0.64216510E+002
  0.22902034E+002  0.48217144E+002  0.51964639E+002
  0.20852232E+002  0.42553583E+002  0.39699547E+002
  0.16909548E+002  0.31032019E+002  0.27458212E+002
  0.12271597E+002  0.17200545E+002  0.15262539E+002
  0.43205939E+001 -0.17412358E+001  0.30169617E+001
  0.30536481E+001 -0.36202539E+001  0.11317965E+003
  0.12673061E+002  0.17007742E+002  0.10088734E+003
  0.17341209E+002  0.30873662E+002  0.88714116E+002
  0.21665905E+002  0.42254749E+002  0.76484918E+002
  0.23910153E+002  0.47837334E+002  0.64216272E+002
  0.23941864E+002  0.47800996E+002  0.51966802E+002
  0.21784703E+002  0.42164076E+002  0.39707421E+002
  0.17634695E+002  0.30716098E+002  0.27466319E+002
  0.12751755E+002  0.16980120E+002  0.15262030E+002
  0.44599627E+001 -0.18154168E+001  0.30150088E+001
  0.31440173E+001 -0.36698498E+001  0.11317790E+003
  0.13149044E+002  0.16787053E+002  0.10089997E+003
  0.18062205E+002  0.30547037E+002  0.88711201E+002
  0.22588297E+002  0.41843230E+002  0.76476348E+002
  0.24940896E+002  0.47401938E+002  0.64215921E+002
  0.24974708E+002  0.47371604E+002  0.51967973E+002
  0.22710416E+002  0.41762443E+002  0.39713407E+002
  0.18354565E+002  0.30391331E+002  0.27472445E+002
  0.13228438E+002  0.16754970E+002  0.15259788E+002
  0.45982500E+001 -0.18890863E+001  0.30126568E+001
  0.32360287E+001 -0.37180237E+001  0.11317703E+003
  0.13622090E+002  0.16560552E+002  0.10091345E+003
  0.18777531E+002  0.30212117E+002  0.88708502E+002
  0.23503757E+002  0.41421989E+002  0.76469629E+002
  0.25963666E+002  0.46953022E+002  0.64215949E+002
  0.25999702E+002  0.46927729E+002  0.51968162E+002
  0.23628870E+002  0.41348529E+002  0.39717573E+002
  0.19068860E+002  0.30057650E+002  0.27476773E+002
  0.13701433E+002  0.16524860E+002  0.15256008E+002
  0.47354137E+001 -0.19622343E+001  0.30101016E+001
  0.33298182E+001 -0.37647415E+001  0.11317677E+003
  0.14091223E+002  0.16326787E+002  0.10092440E+003
  0.19486937E+002  0.29869385E+002  0.88705858E+002
  0.24411903E+002  0.40990297E+002  0.76464419E+002
  0.26977173E+002  0.46488070E+002  0.64215680E+002
  0.27015137E+002  0.46466515E+002  0.51968116E+002
  0.24539189E+002  0.40921337E+002  0.39720512E+002
  0.19777259E+002  0.29715081E+002  0.27479600E+002
  0.14170398E+002  0.16289394E+002  0.15251310E+002
  0.48713578E+001 -0.20348504E+001  0.30076521E+001
  0.34256892E+001 -0.38099043E+001  0.11317677E+003
  0.14556339E+002  0.16086956E+002  0.10093309E+003
  0.20189700E+002  0.29518299E+002  0.88701616E+002
  0.25312729E+002  0.40547922E+002  0.76460728E+002
  0.27980286E+002  0.46005233E+002  0.64215035E+002
  0.28019234E+002  0.45985352E+002  0.51968118E+002
  0.25440712E+002  0.40480217E+002  0.39722618E+002
  0.20478498E+002  0.29361722E+002  0.27483757E+002
  0.14633594E+002  0.16045427E+002  0.15249809E+002
  0.50059829E+001 -0.21068753E+001  0.30056248E+001
  0.35244052E+001 -0.38531799E+001  0.11317680E+003
  0.15016626E+002  0.15841093E+002  0.10093826E+003
  0.20887304E+002  0.29162171E+002  0.88698904E+002
  0.26207072E+002  0.40096322E+002  0.76458733E+002
  0.28973658E+002  0.45506608E+002  0.64214277E+002
  0.29012082E+002  0.45485406E+002  0.51968171E+002
  0.26334350E+002  0.40027390E+002  0.39723738E+002
  0.21174169E+002  0.29001754E+002  0.27485488E+002
  0.15093006E+002  0.15798288E+002  0.15245866E+002
  0.51393276E+001 -0.21781865E+001  0.30043944E+001
  0.36255256E+001 -0.38944552E+001  0.11317684E+003
  0.15472234E+002  0.15590456E+002  0.10094092E+003
  0.21580550E+002  0.28801449E+002  0.88698468E+002
  0.27095618E+002  0.39636569E+002  0.76458033E+002
  0.29958022E+002  0.44993552E+002  0.64213274E+002
  0.29996516E+002  0.44972619E+002  0.51969087E+002
  0.27221577E+002  0.39565339E+002  0.39724223E+002
  0.21865039E+002  0.28636683E+002  0.27484731E+002
  0.15547660E+002  0.15546022E+002  0.15243837E+002
  0.52714405E+001 -0.22487445E+001  0.30039666E+001
  
POLYGONS 81 405
      4      0      1     11     10
      4      1      2     12     11
      4      2      3     13     12
      4      3      4     14     13
      4      4      5     15     14
      4      5      6     16     15
      4      6      7     17     16
      4      7      8     18     17
      4      8      9     19     18
      4     10     11     21     20
      4     11     12     22     21
      4     12     13     23     22
      4     13     14     24     23
      4     14     15     25     24
      4     15     16     26     25
      4     16     17     27     26
      4     17     18     28     27
      4     18     19     29     28
      4     20     21     31     30
      4     21     22     32     31
      4     22     23     33     32
      4     23     24     34     33
      4     24     25     35     34
      4     25     26     36     35
      4     26     27     37     36
      4     27     28     38     37
      4     28     29     39     38
      4     30     31     41     40
      4     31     32     42     41
      4     32     33     43     42
      4     33     34     44     43
      4     34     35     45     44
      4     35     36     46     45
      4     36     37     47     46
      4     37     38     48     47
      4     38     39     49     48
      4     40     41     51     50
      4     41     42     52     51
      4     42     43     53     52
      4     43     44     54     53
      4     44     45     55     54
      4     45     46     56     55
      4     46     47     57     56
      4     47     48     58     57
      4     48     49     59     58
      4     50     51     61     60
      4     51     52     62     61
      4     52     53     63     62
      4     53     54     64     63
      4     54     55     65     64
      4     55     56     66     65
      4     56     57     67     66
      4     57     58     68     67
      4     58     59     69     68
      4     60     61     71     70
      4     61     62     72     71
      4     62     63     73     72
      4     63     64     74     73
      4     64     65     75     74
      4     65     66     76     75
      4     66     67     77     76
      4     67     68     78     77
      4     68     69     79     78
      4     70     71     81     80
      4     71     72     82     81
      4     72     73     83     82
      4     73     74     84     83
      4     74     75     85     84
      4     75     76     86     85
      4     76     77     87     86
      4     77     78     88     87
      4     78     79     89     88
      4     80     81     91     90
      4     81     82     92     91
      4     82     83     93     92
      4     83     84     94     93
      4     84     85     95     94
      4     85     86     96     95
      4     86     87     97     96
      4     87     88     98     97
      4     88     89     99     98
  
CELL_DATA 81
SCALARS Gamma double
LOOKUP_TABLE default
  0.10027813E+003
  0.48770070E+002
  0.23347119E+002
  0.35469586E+002
  0.51734947E+002
  0.44892107E+002
  0.34266464E+002
  0.47929984E+002
  0.52810950E+002
  0.10027813E+003
  0.48770070E+002
  0.23347119E+002
  0.35469586E+002
  0.51734947E+002
  0.44892107E+002
  0.34266464E+002
  0.47929984E+002
  0.52810950E+002
  0.80240252E+002
  0.41003710E+002
  0.20324579E+002
  0.30230284E+002
  0.43423174E+002
  0.37859980E+002
  0.29248693E+002
  0.40490246E+002
  0.44129981E+002
  0.57999852E+002
  0.30493256E+002
  0.16374694E+002
  0.23384678E+002
  0.31974723E+002
  0.28167340E+002
  0.22576558E+002
  0.31041105E+002
  0.33225043E+002
  0.35761694E+002
  0.19421458E+002
  0.11297451E+002
  0.15331624E+002
  0.19929530E+002
  0.17800053E+002
  0.14857698E+002
  0.20276385E+002
  0.21328000E+002
  0.15959946E+002
  0.89899100E+001
  0.56573961E+001
  0.72274289E+001
  0.89183685E+001
  0.81136264E+001
  0.70842443E+001
  0.95628548E+001
  0.98835952E+001
  0.32256505E+001
  0.18979344E+001
  0.12865983E+001
  0.15436262E+001
  0.18072758E+001
  0.16817938E+001
  0.15339126E+001
  0.20388992E+001
  0.20787311E+001
  0.37831218E-001
  0.23374740E-001
  0.16846978E-001
  0.18749696E-001
  0.20843277E-001
  0.19884976E-001
  0.19074689E-001
  0.25027292E-001
  0.25240302E-001
  0.00000000E+000
  0.00000000E+000
  0.00000000E+000
  0.00000000E+000
  0.00000000E+000
  0.00000000E+000
  0.00000000E+000
  0.00000000E+000
  0.00000000E+000
POINT_DATA 100
VECTORS Uconv double
  0.00000000E+000  0.00000000E+000  0.00000000E+000
  0.00000000E+000  0.00000000E+000  0.00000000E+000
  0.00000000E+000  0.00000000E+000  0.00000000E+000
  0.00000000E+000  0.00000000E+000  0.00000000E+000
  0.00000000E+000  0.00000000E+000  0.00000000E+000
  0.00000000E+000  0.00000000E+000  0.00000000E+000
  0.00000000E+000  0.00000000E+000  0.00000000E+000
  0.00000000E+000  0.00000000E+000  0.00000000E+000
  0.00000000E+000  0.00000000E+000  0.00000000E+000
  0.00000000E+000  0.00000000E+000  0.00000000E+000
  0.00000000E+000  0.00000000E+000  0.00000000E+000
  0.00000000E+000  0.00000000E+000  0.00000000E+000
  0.00000000E+000  0.00000000E+000  0.00000000E+000
  0.00000000E+000  0.00000000E+000  0.00000000E+000
  0.00000000E+000  0.00000000E+000  0.00000000E+000
  0.00000000E+000  0.00000000E+000  0.00000000E+000
  0.00000000E+000  0.00000000E+000  0.00000000E+000
  0.00000000E+000  0.00000000E+000  0.00000000E+000
  0.00000000E+000  0.00000000E+000  0.00000000E+000
  0.00000000E+000  0.00000000E+000  0.00000000E+000
  0.17166763E+002  0.68638482E-001 -0.27991719E+000
  0.17135136E+002 -0.15803146E+000 -0.77861083E+000
  0.17125094E+002 -0.15031583E+000 -0.18360032E+000
  0.17078345E+002 -0.26391910E+000 -0.15243530E+000
  0.16941443E+002 -0.60655999E+000 -0.98420612E-001
  0.16921867E+002 -0.66086620E+000  0.13239405E+000
  0.17050864E+002 -0.33413086E+000  0.20230468E+000
  0.17105049E+002 -0.18945795E+000  0.21521626E+000
  0.17109605E+002 -0.16792780E+000  0.26871778E+000
  0.17107850E+002  0.22601198E-001  0.21082362E+000
  0.17169329E+002  0.75299641E-001 -0.27803715E+000
  0.17149923E+002 -0.12855386E+000 -0.61013961E+000
  0.17143282E+002 -0.11105447E+000 -0.13480441E+000
  0.17106188E+002 -0.20421074E+000 -0.11080860E+000
  0.16995414E+002 -0.47654704E+000 -0.74515141E-001
  0.16981146E+002 -0.51607615E+000  0.10090790E+000
  0.17083803E+002 -0.25769573E+000  0.15105864E+000
  0.17124208E+002 -0.14832581E+000  0.16564458E+000
  0.17123388E+002 -0.13845075E+000  0.21857271E+000
  0.17111829E+002  0.28090814E-001  0.20449737E+000
  0.17171829E+002  0.82112442E-001 -0.27621284E+000
  0.17163708E+002 -0.97581023E-001 -0.43228716E+000
  0.17164451E+002 -0.66815675E-001 -0.80345524E-001
  0.17144139E+002 -0.12482545E+000 -0.56456843E-001
  0.17077223E+002 -0.28802393E+000 -0.40658286E-001
  0.17069095E+002 -0.30877824E+000  0.56898473E-001
  0.17128014E+002 -0.15907265E+000  0.85726865E-001
  0.17146297E+002 -0.10230912E+000  0.11010802E+000
  0.17137690E+002 -0.10811027E+000  0.16412315E+000
  0.17115768E+002  0.33576519E-001  0.19841892E+000
  0.17174266E+002  0.89069669E-001 -0.27444021E+000
  0.17176942E+002 -0.65278927E-001 -0.25837659E+000
  0.17187373E+002 -0.20376564E-001 -0.22873236E-001
  0.17187083E+002 -0.37020272E-001  0.34815083E-002
  0.17171305E+002 -0.79568976E-001 -0.26266726E-002
  0.17169830E+002 -0.81876385E-001  0.83489269E-002
  0.17177342E+002 -0.53030057E-001  0.15391138E-001
  0.17169845E+002 -0.54575206E-001  0.52158609E-001
  0.17152165E+002 -0.77681302E-001  0.10781223E+000
  0.17119633E+002  0.39013260E-001  0.19258508E+000
  0.17176642E+002  0.96163069E-001 -0.27271315E+000
  0.17138208E+002 -0.15216943E+000 -0.25528381E+000
  0.17210585E+002  0.25175560E-001  0.33873994E-001
  0.17228787E+002  0.45669411E-001  0.60369378E-001
  0.17258591E+002  0.10453116E+000  0.32474882E-001
  0.17262969E+002  0.11700451E+000 -0.35729993E-001
  0.17224455E+002  0.43944581E-001 -0.49722242E-001
  0.17193434E+002 -0.81614476E-002 -0.45550258E-002
  0.17166510E+002 -0.48015152E-001  0.52234517E-001
  0.17123472E+002  0.44441790E-001  0.18699297E+000
  0.17178954E+002  0.10339157E+000 -0.27102521E+000
  0.17153737E+002 -0.11477041E+000 -0.11376520E+000
  0.17178759E+002 -0.53252521E-001 -0.71139857E-001
  0.17263673E+002  0.11212569E+000  0.10686415E+000
  0.17323897E+002  0.23314004E+000  0.58973148E-001
  0.17332705E+002  0.25498365E+000 -0.68509563E-001
  0.17263138E+002  0.11911753E+000 -0.10141232E+000
  0.17164372E+002 -0.80425285E-001  0.92976813E-001
  0.17131463E+002 -0.13123485E+000  0.14471823E+000
  0.17127254E+002  0.49816047E-001  0.18164272E+000
  0.17181181E+002  0.11077875E+000 -0.26935857E+000
  0.17167316E+002 -0.84303133E-001 -0.14541339E-001
  0.17201445E+002 -0.87547238E-002 -0.14735672E-001
  0.17287798E+002  0.15565764E+000  0.13812201E+000
  0.17360678E+002  0.29796051E+000  0.74339988E-001
  0.17314023E+002  0.19324847E+000 -0.86996745E-001
  0.17289848E+002  0.16763400E+000 -0.13615445E+000
  0.17187658E+002 -0.34960611E-001  0.36294518E-001
  0.17146707E+002 -0.95995725E-001  0.88800576E-001
  0.17130975E+002  0.55121402E-001  0.17652603E+000
  0.17183316E+002  0.11828707E+000 -0.26769912E+000
  0.17183846E+002 -0.48547551E-001  0.49161596E-001
  0.17220596E+002  0.28165009E-001  0.31898064E-001
  0.17265284E+002  0.10042521E+000  0.11304892E+000
  0.17298022E+002  0.14867639E+000  0.43518590E-001
  0.17300109E+002  0.15129947E+000 -0.45170739E-001
  0.17260718E+002  0.96460720E-001 -0.10303209E+000
  0.17207265E+002  0.26479920E-002 -0.10823780E-001
  0.17161781E+002 -0.65858638E-001  0.41052011E-001
  0.17131062E+002  0.53691616E-001  0.17058598E+000
