# vtk DataFile Version 2.0

ASCII
 
DATASET POLYDATA
POINTS 140 double
  0.16465822E+000  0.36402952E-001  0.11318119E+003
 -0.20008515E+002 -0.44265714E+001  0.10112783E+003
 -0.34201941E+002 -0.76004692E+001  0.88931989E+002
 -0.45919951E+002 -0.10268558E+002  0.76593592E+002
 -0.51801140E+002 -0.11619898E+002  0.64335419E+002
 -0.51810111E+002 -0.11632993E+002  0.52091866E+002
 -0.45928286E+002 -0.10295089E+002  0.39836428E+002
 -0.34202644E+002 -0.76016453E+001  0.27489767E+002
 -0.20067573E+002 -0.44386394E+001  0.15240236E+002
  0.18460798E-003  0.49774484E-004  0.30001762E+001
 -0.42291388E+001 -0.93460215E+000  0.11314000E+003
 -0.20974970E+002 -0.12146780E+000  0.10112657E+003
 -0.34891409E+002 -0.45813260E+001  0.88934588E+002
 -0.46446085E+002 -0.78701240E+001  0.76588513E+002
 -0.52269433E+002 -0.94132678E+001  0.64331956E+002
 -0.52287387E+002 -0.93834322E+001  0.52094712E+002
 -0.46466065E+002 -0.77510155E+001  0.39835216E+002
 -0.34922882E+002 -0.42525992E+001  0.27492865E+002
 -0.21023202E+002 -0.41280053E-001  0.15242032E+002
 -0.96491351E+000  0.43953406E+001  0.30022742E+001
 -0.40739469E+001 -0.86084328E+000  0.11313490E+003
 -0.20808608E+002  0.25838139E+000  0.10115597E+003
 -0.34812066E+002 -0.39497541E+001  0.88949539E+002
 -0.46428807E+002 -0.70312633E+001  0.76600613E+002
 -0.52282679E+002 -0.84698218E+001  0.64336669E+002
 -0.52299222E+002 -0.84397502E+001  0.52090826E+002
 -0.46444610E+002 -0.69122105E+001  0.39824741E+002
 -0.34835952E+002 -0.36212143E+001  0.27479309E+002
 -0.20857164E+002  0.34004819E+000  0.15236065E+002
 -0.71598743E+000  0.44111180E+001  0.30102880E+001
 -0.39445358E+001 -0.78956594E+000  0.11313626E+003
 -0.20644670E+002  0.64305266E+000  0.10114507E+003
 -0.34719078E+002 -0.33018357E+001  0.88922435E+002
 -0.46420722E+002 -0.61631233E+001  0.76588105E+002
 -0.52317675E+002 -0.74883324E+001  0.64320730E+002
 -0.52331117E+002 -0.74560515E+001  0.52064678E+002
 -0.46433564E+002 -0.60417143E+001  0.39796229E+002
 -0.34740923E+002 -0.29759924E+001  0.27464943E+002
 -0.20684341E+002  0.72502802E+000  0.15231226E+002
 -0.46723990E+000  0.44251768E+001  0.30183356E+001
 -0.38121441E+001 -0.71733096E+000  0.11313737E+003
 -0.20470092E+002  0.10256676E+001  0.10113593E+003
 -0.34609379E+002 -0.26550431E+001  0.88893436E+002
 -0.46387420E+002 -0.52947742E+001  0.76573021E+002
 -0.52326013E+002 -0.65057171E+001  0.64304649E+002
 -0.52339022E+002 -0.64711068E+001  0.52040816E+002
 -0.46400764E+002 -0.51702004E+001  0.39771472E+002
 -0.34629979E+002 -0.23306119E+001  0.27454705E+002
 -0.20502400E+002  0.11088921E+001  0.15227440E+002
 -0.21837857E+000  0.44374133E+001  0.30232979E+001
 -0.36765002E+001 -0.64392509E+000  0.11313856E+003
 -0.20285947E+002  0.14067235E+001  0.10112075E+003
 -0.34483822E+002 -0.20095249E+001  0.88863530E+002
 -0.46332830E+002 -0.44262579E+001  0.76557702E+002
 -0.52306312E+002 -0.55227507E+001  0.64289592E+002
 -0.52317278E+002 -0.54860863E+001  0.52020318E+002
 -0.46344073E+002 -0.42986391E+001  0.39751477E+002
 -0.34503135E+002 -0.16855653E+001  0.27449095E+002
 -0.20310875E+002  0.14912385E+001  0.15225327E+002
  0.30790321E-001  0.44480818E+001  0.30266385E+001
 -0.35374130E+001 -0.56855200E+000  0.11313947E+003
 -0.20090425E+002  0.17856553E+001  0.10109450E+003
 -0.34346659E+002 -0.13659388E+001  0.88836959E+002
 -0.46251758E+002 -0.35589512E+001  0.76539628E+002
 -0.52252025E+002 -0.45410163E+001  0.64273715E+002
 -0.52261323E+002 -0.45024264E+001  0.52004335E+002
 -0.46260594E+002 -0.34281685E+001  0.39738302E+002
 -0.34359008E+002 -0.10418346E+001  0.27448766E+002
 -0.20114509E+002  0.18715977E+001  0.15220494E+002
  0.28045121E+000  0.44573786E+001  0.30299092E+001
 -0.33944929E+001 -0.49203365E+000  0.11314087E+003
 -0.19903319E+002  0.21631347E+001  0.10108730E+003
 -0.34188615E+002 -0.72412581E+000  0.88805293E+002
 -0.46145391E+002 -0.26935422E+001  0.76519283E+002
 -0.52163603E+002 -0.35617748E+001  0.64257783E+002
 -0.52171382E+002 -0.35214477E+001  0.51992561E+002
 -0.46152011E+002 -0.25596360E+001  0.39731281E+002
 -0.34198912E+002 -0.39954156E+000  0.27452676E+002
 -0.19916396E+002  0.22506508E+001  0.15208858E+002
  0.53070938E+000  0.44654377E+001  0.30329325E+001
 -0.32474952E+001 -0.41439000E+000  0.11314270E+003
 -0.19689823E+002  0.25400026E+001  0.10105277E+003
 -0.34015300E+002 -0.84623448E-001  0.88774130E+002
 -0.46025476E+002 -0.18308456E+001  0.76505810E+002
 -0.52041817E+002 -0.25863409E+001  0.64241746E+002
 -0.52048181E+002 -0.25445127E+001  0.51985370E+002
 -0.46022734E+002 -0.16939968E+001  0.39728319E+002
 -0.34023341E+002  0.24085011E+000  0.27460078E+002
 -0.19698285E+002  0.26289430E+001  0.15212069E+002
  0.78162015E+000  0.44723565E+001  0.30355190E+001
 -0.30961662E+001 -0.33570821E+000  0.11314477E+003
 -0.19468336E+002  0.29151893E+001  0.10101763E+003
 -0.33828093E+002  0.55269145E+000  0.88745126E+002
 -0.45875346E+002 -0.97079704E+000  0.76485176E+002
 -0.51899762E+002 -0.16153075E+001  0.64229029E+002
 -0.51903907E+002 -0.15723286E+001  0.51980032E+002
 -0.45870989E+002 -0.83141411E+000  0.39730183E+002
 -0.33833749E+002  0.87920100E+000  0.27470352E+002
 -0.19472481E+002  0.30054787E+001  0.15216212E+002
  0.10334823E+001  0.44783877E+001  0.30370411E+001
 -0.29403235E+001 -0.25611566E+000  0.11314664E+003
 -0.19238370E+002  0.32895661E+001  0.10098977E+003
 -0.33627982E+002  0.11877841E+001  0.88719584E+002
 -0.45705022E+002 -0.11368550E+000  0.76465843E+002
 -0.51735379E+002 -0.64774590E+000  0.64217890E+002
 -0.51737521E+002 -0.60403956E+000  0.51977866E+002
 -0.45699886E+002  0.27888536E-001  0.39735264E+002
 -0.33631423E+002  0.15153714E+001  0.27481553E+002
 -0.19239761E+002  0.33805135E+001  0.15221061E+002
  0.12855470E+001  0.44828370E+001  0.30392331E+001
 -0.27796864E+001 -0.17587645E+000  0.11314759E+003
 -0.19000552E+002  0.36625824E+001  0.10096592E+003
 -0.33415351E+002  0.18205576E+001  0.88698533E+002
 -0.45512714E+002  0.74010432E+000  0.76447808E+002
 -0.51553942E+002  0.31660927E+000  0.64209848E+002
 -0.51554371E+002  0.36056296E+000  0.51977889E+002
 -0.45508445E+002  0.88353950E+000  0.39743943E+002
 -0.33417784E+002  0.21492307E+001  0.27492889E+002
 -0.18999664E+002  0.37531826E+001  0.15224094E+002
  0.15377829E+001  0.44860244E+001  0.30413390E+001
 -0.26139514E+001 -0.95171865E-001  0.11314746E+003
 -0.18756295E+002  0.40327275E+001  0.10092583E+003
 -0.33194786E+002  0.24513790E+001  0.88685759E+002
 -0.45305670E+002  0.15906796E+001  0.76434598E+002
 -0.51349452E+002  0.12771843E+001  0.64202953E+002
 -0.51348969E+002  0.13210756E+001  0.51981602E+002
 -0.45302423E+002  0.17354260E+001  0.39752708E+002
 -0.33210078E+002  0.27825457E+001  0.27484597E+002
 -0.18753238E+002  0.41244263E+001  0.15235060E+002
  0.17899894E+001  0.44880436E+001  0.30426916E+001
 -0.24440489E+001 -0.14238027E-001  0.11314672E+003
 -0.18505507E+002  0.44035343E+001  0.10090997E+003
 -0.32981961E+002  0.30832869E+001  0.88696705E+002
 -0.45086267E+002  0.24391086E+001  0.76425867E+002
 -0.51134635E+002  0.22354391E+001  0.64199518E+002
 -0.51133126E+002  0.22791755E+001  0.51984485E+002
 -0.45082316E+002  0.25842608E+001  0.39759899E+002
 -0.32983603E+002  0.34131304E+001  0.27482523E+002
 -0.18499930E+002  0.44937565E+001  0.15241976E+002
  0.20420747E+001  0.44885973E+001  0.30444339E+001
  
POLYGONS 117 585
      4      0      1     11     10
      4      1      2     12     11
      4      2      3     13     12
      4      3      4     14     13
      4      4      5     15     14
      4      5      6     16     15
      4      6      7     17     16
      4      7      8     18     17
      4      8      9     19     18
      4     10     11     21     20
      4     11     12     22     21
      4     12     13     23     22
      4     13     14     24     23
      4     14     15     25     24
      4     15     16     26     25
      4     16     17     27     26
      4     17     18     28     27
      4     18     19     29     28
      4     20     21     31     30
      4     21     22     32     31
      4     22     23     33     32
      4     23     24     34     33
      4     24     25     35     34
      4     25     26     36     35
      4     26     27     37     36
      4     27     28     38     37
      4     28     29     39     38
      4     30     31     41     40
      4     31     32     42     41
      4     32     33     43     42
      4     33     34     44     43
      4     34     35     45     44
      4     35     36     46     45
      4     36     37     47     46
      4     37     38     48     47
      4     38     39     49     48
      4     40     41     51     50
      4     41     42     52     51
      4     42     43     53     52
      4     43     44     54     53
      4     44     45     55     54
      4     45     46     56     55
      4     46     47     57     56
      4     47     48     58     57
      4     48     49     59     58
      4     50     51     61     60
      4     51     52     62     61
      4     52     53     63     62
      4     53     54     64     63
      4     54     55     65     64
      4     55     56     66     65
      4     56     57     67     66
      4     57     58     68     67
      4     58     59     69     68
      4     60     61     71     70
      4     61     62     72     71
      4     62     63     73     72
      4     63     64     74     73
      4     64     65     75     74
      4     65     66     76     75
      4     66     67     77     76
      4     67     68     78     77
      4     68     69     79     78
      4     70     71     81     80
      4     71     72     82     81
      4     72     73     83     82
      4     73     74     84     83
      4     74     75     85     84
      4     75     76     86     85
      4     76     77     87     86
      4     77     78     88     87
      4     78     79     89     88
      4     80     81     91     90
      4     81     82     92     91
      4     82     83     93     92
      4     83     84     94     93
      4     84     85     95     94
      4     85     86     96     95
      4     86     87     97     96
      4     87     88     98     97
      4     88     89     99     98
      4     90     91    101    100
      4     91     92    102    101
      4     92     93    103    102
      4     93     94    104    103
      4     94     95    105    104
      4     95     96    106    105
      4     96     97    107    106
      4     97     98    108    107
      4     98     99    109    108
      4    100    101    111    110
      4    101    102    112    111
      4    102    103    113    112
      4    103    104    114    113
      4    104    105    115    114
      4    105    106    116    115
      4    106    107    117    116
      4    107    108    118    117
      4    108    109    119    118
      4    110    111    121    120
      4    111    112    122    121
      4    112    113    123    122
      4    113    114    124    123
      4    114    115    125    124
      4    115    116    126    125
      4    116    117    127    126
      4    117    118    128    127
      4    118    119    129    128
      4    120    121    131    130
      4    121    122    132    131
      4    122    123    133    132
      4    123    124    134    133
      4    124    125    135    134
      4    125    126    136    135
      4    126    127    137    136
      4    127    128    138    137
      4    128    129    139    138
  
CELL_DATA 117
SCALARS Gamma double
LOOKUP_TABLE default
 -0.46293041E+001
 -0.16051274E+003
 -0.14288731E+003
 -0.12036228E+003
 -0.11398988E+003
 -0.10674360E+003
 -0.11773748E+003
 -0.14880179E+003
 -0.69166184E+002
 -0.46293041E+001
 -0.16051274E+003
 -0.14288731E+003
 -0.12036228E+003
 -0.11398988E+003
 -0.10674360E+003
 -0.11773748E+003
 -0.14880179E+003
 -0.69166184E+002
 -0.50095155E+001
 -0.16144714E+003
 -0.14392381E+003
 -0.12148782E+003
 -0.11515820E+003
 -0.10810995E+003
 -0.11885418E+003
 -0.14990370E+003
 -0.71660577E+002
 -0.51494908E+001
 -0.16153997E+003
 -0.14340084E+003
 -0.12383816E+003
 -0.11906972E+003
 -0.11311480E+003
 -0.12183001E+003
 -0.15165461E+003
 -0.73803696E+002
 -0.51346537E+001
 -0.15665929E+003
 -0.13846815E+003
 -0.12263195E+003
 -0.11920674E+003
 -0.11390880E+003
 -0.12094731E+003
 -0.14870566E+003
 -0.73654135E+002
 -0.46587266E+001
 -0.13835549E+003
 -0.12171970E+003
 -0.11050393E+003
 -0.10856606E+003
 -0.10380919E+003
 -0.10921629E+003
 -0.13273300E+003
 -0.66919081E+002
 -0.38266154E+001
 -0.11048758E+003
 -0.96801330E+002
 -0.90032760E+002
 -0.89688879E+002
 -0.85493586E+002
 -0.89374969E+002
 -0.10715760E+003
 -0.54436325E+002
 -0.28342566E+001
 -0.79388323E+002
 -0.69385444E+002
 -0.66057483E+002
 -0.66650169E+002
 -0.63428619E+002
 -0.65857825E+002
 -0.77955958E+002
 -0.39714610E+002
 -0.17915563E+001
 -0.48619196E+002
 -0.42402214E+002
 -0.41280658E+002
 -0.42145739E+002
 -0.40220134E+002
 -0.41313394E+002
 -0.48317845E+002
 -0.24714688E+002
 -0.81856091E+000
 -0.21541708E+002
 -0.18744617E+002
 -0.18631326E+002
 -0.19216129E+002
 -0.18418026E+002
 -0.18723285E+002
 -0.21655029E+002
 -0.11135103E+002
 -0.16983547E+000
 -0.43158211E+001
 -0.37588562E+001
 -0.38076947E+001
 -0.39630860E+001
 -0.38217750E+001
 -0.38456670E+001
 -0.43977668E+001
 -0.22764939E+001
 -0.20358333E-002
 -0.50129804E-001
 -0.43769850E-001
 -0.45116199E-001
 -0.47341231E-001
 -0.45934438E-001
 -0.45782683E-001
 -0.51804677E-001
 -0.27059359E-001
 -0.00000000E+000
 -0.00000000E+000
 -0.00000000E+000
 -0.00000000E+000
 -0.00000000E+000
 -0.00000000E+000
 -0.00000000E+000
 -0.00000000E+000
 -0.00000000E+000
POINT_DATA 140
VECTORS Uconv double
  0.00000000E+000  0.00000000E+000  0.00000000E+000
  0.00000000E+000  0.00000000E+000  0.00000000E+000
  0.00000000E+000  0.00000000E+000  0.00000000E+000
  0.00000000E+000  0.00000000E+000  0.00000000E+000
  0.00000000E+000  0.00000000E+000  0.00000000E+000
  0.00000000E+000  0.00000000E+000  0.00000000E+000
  0.00000000E+000  0.00000000E+000  0.00000000E+000
  0.00000000E+000  0.00000000E+000  0.00000000E+000
  0.00000000E+000  0.00000000E+000  0.00000000E+000
  0.00000000E+000  0.00000000E+000  0.00000000E+000
  0.00000000E+000  0.00000000E+000  0.00000000E+000
  0.00000000E+000  0.00000000E+000  0.00000000E+000
  0.00000000E+000  0.00000000E+000  0.00000000E+000
  0.00000000E+000  0.00000000E+000  0.00000000E+000
  0.00000000E+000  0.00000000E+000  0.00000000E+000
  0.00000000E+000  0.00000000E+000  0.00000000E+000
  0.00000000E+000  0.00000000E+000  0.00000000E+000
  0.00000000E+000  0.00000000E+000  0.00000000E+000
  0.00000000E+000  0.00000000E+000  0.00000000E+000
  0.00000000E+000  0.00000000E+000  0.00000000E+000
  0.17133892E+002 -0.25629975E+000 -0.50903166E+000
  0.16514806E+002  0.20529897E+000  0.29401093E+001
  0.15619682E+002  0.24057517E+000  0.14951181E+001
  0.15149262E+002  0.10515686E+000  0.12100464E+001
  0.14781830E+002  0.50371918E-001  0.47131174E+000
  0.14868857E+002  0.41968595E-001 -0.38860350E+000
  0.15351741E+002  0.65462434E-001 -0.10478857E+001
  0.15785985E+002  0.17053871E+000 -0.13555529E+001
  0.16337145E+002  0.26765188E+000 -0.59679905E+000
  0.16960586E+002 -0.88854277E-001  0.80137246E+000
  0.17128348E+002 -0.25813561E+000 -0.52240214E+000
  0.16552691E+002  0.20729220E+000  0.23370803E+001
  0.15743720E+002  0.22201919E+000  0.13726899E+001
  0.15193838E+002  0.11494969E+000  0.11682882E+001
  0.14664640E+002  0.69102387E-001  0.48405669E+000
  0.14740912E+002  0.59297430E-001 -0.41068745E+000
  0.15370054E+002  0.76603213E-001 -0.10290200E+001
  0.15893730E+002  0.16212427E+000 -0.12496353E+001
  0.16445831E+002  0.22361719E+000 -0.50272550E+000
  0.16951518E+002 -0.97813452E-001  0.82429801E+000
  0.17122662E+002 -0.26021752E+000 -0.53740063E+000
  0.16630708E+002  0.15992469E+000  0.21457883E+001
  0.15899898E+002  0.19149749E+000  0.12187977E+001
  0.15319676E+002  0.11567062E+000  0.10818961E+001
  0.14680031E+002  0.85608688E-001  0.47064879E+000
  0.14741335E+002  0.76769339E-001 -0.41138184E+000
  0.15464280E+002  0.82582819E-001 -0.96940507E+000
  0.16030302E+002  0.14429483E+000 -0.11157457E+001
  0.16532470E+002  0.18621353E+000 -0.49386493E+000
  0.16941957E+002 -0.11523729E+000  0.86833204E+000
  0.17116554E+002 -0.26210771E+000 -0.55177836E+000
  0.16707652E+002  0.10718331E+000  0.18818651E+001
  0.16083110E+002  0.14961613E+000  0.10381260E+001
  0.15543831E+002  0.10347661E+000  0.93612802E+000
  0.14867407E+002  0.92469654E-001  0.42459692E+000
  0.14911000E+002  0.85148879E-001 -0.38296892E+000
  0.15648146E+002  0.76314264E-001 -0.85788150E+000
  0.16189132E+002  0.11708567E+000 -0.94775197E+000
  0.16624752E+002  0.14422631E+000 -0.41554110E+000
  0.16931711E+002 -0.13007981E+000  0.91087235E+000
  0.17110166E+002 -0.26415596E+000 -0.56741748E+000
  0.16780841E+002  0.49332020E-001  0.15788091E+001
  0.15788787E+002  0.90444417E-001  0.13091608E+001
  0.15857261E+002  0.72151613E-001  0.73586093E+000
  0.15239749E+002  0.77070776E-001  0.34473655E+000
  0.15262262E+002  0.72547890E-001 -0.32145404E+000
  0.15917843E+002  0.54721237E-001 -0.69312360E+000
  0.16368437E+002  0.79095824E-001 -0.76866020E+000
  0.16711343E+002  0.10355982E+000 -0.35692853E+000
  0.16920712E+002 -0.14359706E+000  0.95553222E+000
  0.17103396E+002 -0.26614693E+000 -0.58342798E+000
  0.16840095E+002  0.10387043E-001  0.12365870E+001
  0.16032148E+002  0.43508512E-001  0.10649571E+001
  0.16236546E+002  0.21169497E-001  0.49381273E+000
  0.15769023E+002  0.31338758E-001  0.23589394E+000
  0.15767467E+002  0.30264976E-001 -0.22859647E+000
  0.16252384E+002  0.14646270E-001 -0.48768330E+000
  0.16559859E+002  0.32289655E-001 -0.57638387E+000
  0.16792230E+002  0.66326684E-001 -0.30011579E+000
  0.16908941E+002 -0.15541849E+000  0.99995462E+000
  0.17096310E+002 -0.26822021E+000 -0.60208272E+000
  0.16912340E+002 -0.59458053E-001  0.79551850E+000
  0.16285590E+002 -0.15320541E-001  0.81060053E+000
  0.15491256E+002 -0.48157044E-001  0.11075168E+001
  0.16391966E+002 -0.45987227E-001  0.10882746E+000
  0.16368860E+002 -0.42023200E-001 -0.11448031E+000
  0.16225263E+002 -0.47544462E-001 -0.44814566E+000
  0.16764588E+002 -0.23587430E-001 -0.40610939E+000
  0.16864532E+002  0.35123379E-001 -0.31085750E+000
  0.16896380E+002 -0.16555554E+000  0.10435390E+001
  0.17088733E+002 -0.27020711E+000 -0.61871804E+000
  0.16963346E+002 -0.15521369E+000  0.21367363E+000
  0.16539491E+002 -0.78483199E-001  0.55448849E+000
  0.16010481E+002 -0.10267624E+000  0.77622226E+000
  0.16144709E+002 -0.14581820E+000  0.22172484E+000
  0.16173688E+002 -0.14183874E+000 -0.21012719E+000
  0.16660284E+002 -0.10341365E+000 -0.18332476E+000
  0.16959989E+002 -0.82435670E-001 -0.20103554E+000
  0.16929535E+002 -0.67248004E-002 -0.17357514E+000
  0.16883001E+002 -0.17391243E+000  0.10856255E+001
  0.17080595E+002 -0.27201301E+000 -0.63573820E+000
  0.16984031E+002 -0.16307390E+000  0.32481837E-001
  0.16785874E+002 -0.14467523E+000  0.30471955E+000
  0.16490754E+002 -0.16454186E+000  0.45213283E+000
  0.16889068E+002 -0.22892364E+000  0.57754099E-001
  0.16891480E+002 -0.22184144E+000 -0.55147116E-001
  0.17053770E+002 -0.16464474E+000  0.66812217E-001
  0.17149276E+002 -0.14347408E+000 -0.15793650E-002
  0.16965255E+002 -0.29907418E-001 -0.29941256E-001
  0.16869035E+002 -0.20041879E+000  0.11653221E+001
  0.17071903E+002 -0.27368505E+000 -0.65568616E+000
  0.17012164E+002 -0.18265229E+000 -0.18028375E+000
  0.17018572E+002 -0.21110778E+000  0.67446330E-001
  0.16900020E+002 -0.22830564E+000  0.16659854E+000
  0.17474019E+002 -0.30587697E+000 -0.76643679E-001
  0.17458562E+002 -0.29666263E+000  0.73483260E-001
  0.17383117E+002 -0.22770183E+000  0.28153332E+000
  0.17328439E+002 -0.20464791E+000  0.18775587E+000
  0.17030754E+002 -0.70236075E-001 -0.83414925E-002
  0.16853807E+002 -0.20117924E+000  0.11967571E+001
  0.17062571E+002 -0.27526804E+000 -0.67320160E+000
  0.17034134E+002 -0.21033564E+000 -0.36999425E+000
  0.17232524E+002 -0.27283419E+000 -0.14437881E+000
  0.17227229E+002 -0.28011720E+000 -0.62562508E-001
  0.17873980E+002 -0.36879910E+000 -0.17338851E+000
  0.17848146E+002 -0.35819382E+000  0.16917330E+000
  0.17637574E+002 -0.27973255E+000  0.44768383E+000
  0.17491790E+002 -0.25286362E+000  0.36024351E+000
  0.17082878E+002 -0.10450911E+000  0.15855701E-001
  0.16837644E+002 -0.20250036E+000  0.12263125E+001
  0.17052555E+002 -0.27647856E+000 -0.69315300E+000
  0.17056700E+002 -0.21640595E+000 -0.51237135E+000
  0.17428961E+002 -0.32093649E+000 -0.34988427E+000
  0.17469640E+002 -0.31916492E+000 -0.24429457E+000
  0.18101044E+002 -0.40578239E+000 -0.23275665E+000
  0.18071144E+002 -0.39498534E+000  0.22686470E+000
  0.17815316E+002 -0.31967771E+000  0.56935517E+000
  0.17646462E+002 -0.30534830E+000  0.52623766E+000
  0.17129884E+002 -0.13425675E+000  0.18764033E-001
  0.16820670E+002 -0.20517528E+000  0.12691140E+001
