# vtk DataFile Version 2.0
Sgmt
ASCII
 
DATASET POLYDATA
POINTS 540 double
  0.11593346E-001  0.21740743E-002  0.11318236E+003
 -0.20494682E+002 -0.14802471E+001  0.10095270E+003
 -0.34951710E+002 -0.25271836E+001  0.88711277E+002
 -0.47050628E+002 -0.34061114E+001  0.76462559E+002
 -0.53101110E+002 -0.38472110E+001  0.64219216E+002
 -0.53101353E+002 -0.38475747E+001  0.51977300E+002
 -0.47049749E+002 -0.34097535E+001  0.39734787E+002
 -0.34952124E+002 -0.25290554E+001  0.27483840E+002
 -0.20497872E+002 -0.14815611E+001  0.15241762E+002
  0.10638977E-003  0.24190966E-004  0.30000678E+001
 -0.44766610E+001 -0.32273740E+000  0.11318004E+003
 -0.20817595E+002  0.29201710E+001  0.10095422E+003
 -0.35182879E+002  0.56104382E+000  0.88714572E+002
 -0.47231470E+002 -0.95731102E+000  0.76463960E+002
 -0.53265198E+002 -0.15974108E+001  0.64219524E+002
 -0.53267995E+002 -0.15539848E+001  0.51976124E+002
 -0.47235231E+002 -0.81608718E+000  0.39731848E+002
 -0.35196758E+002  0.88781693E+000  0.27483461E+002
 -0.20820926E+002  0.30068280E+001  0.15241748E+002
 -0.32428594E+000  0.44883167E+001  0.30000601E+001
 -0.43097819E+001 -0.24210830E+000  0.11317988E+003
 -0.20589705E+002  0.32946515E+001  0.10095441E+003
 -0.34995225E+002  0.11946450E+001  0.88714723E+002
 -0.47069201E+002 -0.10646947E+000  0.76464051E+002
 -0.53113617E+002 -0.63777856E+000  0.64219545E+002
 -0.53115637E+002 -0.59430921E+000  0.51976102E+002
 -0.47070422E+002  0.34798107E-001  0.39731752E+002
 -0.35003218E+002  0.15216124E+001  0.27483305E+002
 -0.20591493E+002  0.33813613E+001  0.15241669E+002
 -0.71493942E-001  0.44933742E+001  0.30003147E+001
 -0.41486898E+001 -0.16180058E+000  0.11318174E+003
 -0.20354583E+002  0.36688569E+001  0.10094591E+003
 -0.34793505E+002  0.18310265E+001  0.88704827E+002
 -0.46895872E+002  0.75089733E+000  0.76458782E+002
 -0.52951413E+002  0.33088490E+000  0.64215203E+002
 -0.52952548E+002  0.37472727E+000  0.51972008E+002
 -0.46897067E+002  0.89396682E+000  0.39728529E+002
 -0.34799524E+002  0.21587753E+001  0.27484258E+002
 -0.20355710E+002  0.37560971E+001  0.15242065E+002
  0.18163623E+000  0.44970244E+001  0.30002954E+001
 -0.39824603E+001 -0.81048151E-001  0.11318256E+003
 -0.20111953E+002  0.40413371E+001  0.10094155E+003
 -0.34579742E+002  0.24649046E+001  0.88699342E+002
 -0.46703796E+002  0.16045941E+001  0.76455990E+002
 -0.52767848E+002  0.12951550E+001  0.64213198E+002
 -0.52768466E+002  0.13390417E+001  0.51970424E+002
 -0.46705230E+002  0.17489584E+001  0.39727654E+002
 -0.34583994E+002  0.27933572E+001  0.27484905E+002
 -0.20112927E+002  0.41289569E+001  0.15242399E+002
  0.43479382E+000  0.44992100E+001  0.30002981E+001
 -0.38120405E+001 -0.55312340E-004  0.11318274E+003
 -0.19863238E+002  0.44122317E+001  0.10094043E+003
 -0.34356308E+002  0.30968274E+001  0.88697784E+002
 -0.46495153E+002  0.24554437E+001  0.76455231E+002
 -0.52564451E+002  0.22557209E+001  0.64212744E+002
 -0.52564454E+002  0.22995807E+001  0.51970158E+002
 -0.46495153E+002  0.26002652E+001  0.39727672E+002
 -0.34356306E+002  0.34255733E+001  0.27485119E+002
 -0.19863239E+002  0.44999816E+001  0.15242522E+002
  0.68788371E+000  0.44999358E+001  0.30003100E+001
  0.11593346E-001  0.21740743E-002  0.11318236E+003
  0.89685036E+001  0.18495428E+002  0.10092975E+003
  0.15298974E+002  0.31550225E+002  0.88704915E+002
  0.20599607E+002  0.42477816E+002  0.76463474E+002
  0.23245501E+002  0.47934619E+002  0.64215324E+002
  0.23244064E+002  0.47932161E+002  0.51968825E+002
  0.20597453E+002  0.42473509E+002  0.39721601E+002
  0.15296984E+002  0.31546131E+002  0.27478934E+002
  0.89673563E+001  0.18492698E+002  0.15249144E+002
  0.10638977E-003  0.24190966E-004  0.30000678E+001
  0.25378961E+001 -0.37217747E+001  0.11318296E+003
  0.12935932E+002  0.16564765E+002  0.10093018E+003
  0.18085981E+002  0.30199970E+002  0.88705743E+002
  0.22809703E+002  0.41407862E+002  0.76463786E+002
  0.25275275E+002  0.46950472E+002  0.64215406E+002
  0.25313447E+002  0.46929175E+002  0.51968528E+002
  0.22938203E+002  0.41341074E+002  0.39721026E+002
  0.18379420E+002  0.30051657E+002  0.27479078E+002
  0.13015810E+002  0.16528004E+002  0.15249242E+002
  0.40492765E+001 -0.19631902E+001  0.30033180E+001
  0.26424375E+001 -0.37668545E+001  0.11318287E+003
  0.13404154E+002  0.16329047E+002  0.10093001E+003
  0.18798949E+002  0.29869284E+002  0.88705688E+002
  0.23723711E+002  0.40990156E+002  0.76463689E+002
  0.26288670E+002  0.46487381E+002  0.64215331E+002
  0.26326512E+002  0.46465517E+002  0.51968539E+002
  0.23851043E+002  0.40921172E+002  0.39721067E+002
  0.19089659E+002  0.29715694E+002  0.27479148E+002
  0.13483350E+002  0.16290846E+002  0.15249350E+002
  0.41852248E+001 -0.20357933E+001  0.30033849E+001
  0.27382541E+001 -0.38121844E+001  0.11318283E+003
  0.13869308E+002  0.16089276E+002  0.10093641E+003
  0.19501671E+002  0.29518294E+002  0.88701638E+002
  0.24623761E+002  0.40546304E+002  0.76458885E+002
  0.27290080E+002  0.46001155E+002  0.64214167E+002
  0.27328628E+002  0.45980387E+002  0.51969403E+002
  0.24751488E+002  0.40477937E+002  0.39724704E+002
  0.19791065E+002  0.29362880E+002  0.27482486E+002
  0.13947382E+002  0.16048793E+002  0.15245845E+002
  0.43197616E+001 -0.21079407E+001  0.30014787E+001
  0.28369176E+001 -0.38556308E+001  0.11318282E+003
  0.14329504E+002  0.15843202E+002  0.10093959E+003
  0.20199126E+002  0.29161979E+002  0.88698742E+002
  0.25517522E+002  0.40093645E+002  0.76456067E+002
  0.28282390E+002  0.45500587E+002  0.64213090E+002
  0.28320803E+002  0.45479443E+002  0.51970001E+002
  0.25644320E+002  0.40023610E+002  0.39726956E+002
  0.20486528E+002  0.29002608E+002  0.27484504E+002
  0.14406417E+002  0.15800847E+002  0.15243340E+002
  0.44530194E+001 -0.21793731E+001  0.30003643E+001
  0.29379877E+001 -0.38970799E+001  0.11318282E+003
  0.14784719E+002  0.15591734E+002  0.10094035E+003
  0.20892143E+002  0.28800869E+002  0.88697852E+002
  0.26406066E+002  0.39634049E+002  0.76455281E+002
  0.29267864E+002  0.44990221E+002  0.64212713E+002
  0.29305850E+002  0.44968296E+002  0.51970190E+002
  0.26531493E+002  0.39561654E+002  0.39727615E+002
  0.21176845E+002  0.28636489E+002  0.27485057E+002
  0.14860705E+002  0.15547852E+002  0.15242548E+002
  0.45850825E+001 -0.22499841E+001  0.30000580E+001
  0.11593346E-001  0.21740743E-002  0.11318236E+003
  0.11532375E+002 -0.17013859E+002  0.10093178E+003
  0.19669995E+002 -0.29023624E+002  0.88703811E+002
  0.26486129E+002 -0.39075573E+002  0.76462987E+002
  0.29890134E+002 -0.44096256E+002  0.64215940E+002
  0.29889529E+002 -0.44095099E+002  0.51969641E+002
  0.26484831E+002 -0.39071656E+002  0.39724263E+002
  0.19669288E+002 -0.29017828E+002  0.27482153E+002
  0.11531053E+002 -0.17012212E+002  0.15248946E+002
  0.10638977E-003  0.24190966E-004  0.30000678E+001
 -0.19523102E+001 -0.40466632E+001  0.11318238E+003
  0.78811800E+001 -0.19491101E+002  0.10093332E+003
  0.17106133E+002 -0.30760635E+002  0.88704700E+002
  0.24453260E+002 -0.40452806E+002  0.76463184E+002
  0.28023506E+002 -0.45362835E+002  0.64216058E+002
  0.27986967E+002 -0.45386835E+002  0.51969215E+002
  0.24331860E+002 -0.40529816E+002  0.39723712E+002
  0.16833718E+002 -0.30939912E+002  0.27482163E+002
  0.78067709E+001 -0.19538023E+002  0.15248955E+002
 -0.37246714E+001 -0.25250540E+001  0.29968252E+001
 -0.18529144E+001 -0.40108687E+001  0.11318225E+003
  0.77008177E+001 -0.19629860E+002  0.10093319E+003
  0.16721302E+002 -0.31063694E+002  0.88704638E+002
  0.23892649E+002 -0.40886588E+002  0.76463129E+002
  0.27373832E+002 -0.45860051E+002  0.64216027E+002
  0.27336862E+002 -0.45883385E+002  0.51969251E+002
  0.23769877E+002 -0.40961386E+002  0.39723779E+002
  0.16445693E+002 -0.31238020E+002  0.27482239E+002
  0.76255768E+001 -0.19675424E+002  0.15249049E+002
 -0.35976703E+001 -0.24575229E+001  0.29965721E+001
 -0.17600677E+001 -0.39747722E+001  0.11318258E+003
  0.75159444E+001 -0.19760195E+002  0.10093759E+003
  0.16327389E+002 -0.31349540E+002  0.88701158E+002
  0.23317513E+002 -0.41298088E+002  0.76458677E+002
  0.26709192E+002 -0.46335699E+002  0.64214417E+002
  0.26672146E+002 -0.46359169E+002  0.51969643E+002
  0.23194400E+002 -0.41373693E+002  0.39725982E+002
  0.16048684E+002 -0.31521926E+002  0.27483771E+002
  0.74410405E+001 -0.19805737E+002  0.15245640E+002
 -0.34694838E+001 -0.23890607E+001  0.29984250E+001
 -0.16627143E+001 -0.39368491E+001  0.11318273E+003
  0.73299478E+001 -0.19884888E+002  0.10093978E+003
  0.15929280E+002 -0.31627019E+002  0.88698628E+002
  0.22737231E+002 -0.41698422E+002  0.76456046E+002
  0.26037440E+002 -0.46796468E+002  0.64213162E+002
  0.25999937E+002 -0.46819220E+002  0.51970017E+002
  0.22613110E+002 -0.41772911E+002  0.39727250E+002
  0.15647563E+002 -0.31796033E+002  0.27484791E+002
  0.72546644E+001 -0.19929879E+002  0.15243306E+002
 -0.33400324E+001 -0.23198438E+001  0.29994654E+001
 -0.15620402E+001 -0.38971389E+001  0.11318277E+003
  0.71424549E+001 -0.20003975E+002  0.10094028E+003
  0.15528198E+002 -0.31897717E+002  0.88697826E+002
  0.22153103E+002 -0.42089584E+002  0.76455315E+002
  0.25360785E+002 -0.47246059E+002  0.64212754E+002
  0.25322804E+002 -0.47267991E+002  0.51970150E+002
  0.22027688E+002 -0.42161996E+002  0.39727588E+002
  0.15243489E+002 -0.32062085E+002  0.27485083E+002
  0.70664633E+001 -0.20047838E+002  0.15242600E+002
 -0.32092353E+001 -0.22499704E+001  0.29997379E+001
 -0.99481530E-001 -0.71104136E-002  0.15120343E+002
 -0.24324474E+001 -0.17542006E+000  0.15120267E+002
 -0.47653811E+001 -0.34419936E+000  0.15120409E+002
 -0.70983005E+001 -0.51316287E+000  0.15120397E+002
 -0.94312949E+001 -0.68103719E+000  0.15121258E+002
 -0.11764237E+002 -0.85020334E+000  0.15121390E+002
 -0.14097166E+002 -0.10188170E+001  0.15121062E+002
 -0.16430088E+002 -0.11874304E+001  0.15120531E+002
 -0.18763010E+002 -0.13560307E+001  0.15119917E+002
 -0.21095927E+002 -0.15246068E+001  0.15119360E+002
[...]
CELL_DATA 936
SCALARS Gamma double
LOOKUP_TABLE default
 -0.78081661E+000
  0.78081661E+000
 -0.21249330E+002
  0.20468513E+002
 -0.18535453E+002
 -0.27138770E+001
 -0.18775158E+002
  0.23970565E+000
 -0.19538183E+002
  0.76302465E+000
 -0.18845458E+002
 -0.69272526E+000
 -0.18965860E+002
  0.12040242E+000
 -0.21652286E+002
  0.26864256E+001
 -0.11121842E+002
 -0.10530444E+002
 -0.11121842E+002
  0.00000000E+000
  0.78081661E+000
  0.00000000E+000
  0.20468513E+002
  0.00000000E+000
 -0.27138770E+001
  0.00000000E+000
  0.23970565E+000
  0.00000000E+000
  0.76302465E+000
  0.00000000E+000
 -0.69272526E+000
  0.00000000E+000
  0.12040242E+000
  0.00000000E+000
  0.26864256E+001
  0.00000000E+000
 -0.10530444E+002
 -0.11121842E+002
  0.61098114E+000
  0.16983547E+000
  0.16933509E+002
  0.41459856E+001
  0.14776597E+002
 -0.55696483E+000
  0.14967464E+002
  0.48838483E-001
  0.15575097E+002
  0.15539132E+000
  0.15023683E+002
 -0.14131106E+000
  0.15120193E+002
  0.23892066E-001
  0.17254519E+002
  0.55209979E+000
  0.88453485E+001
 -0.21212729E+001
 -0.22764939E+001
  0.16779964E+000
  0.20358333E-002
  0.42656912E+001
  0.48093971E-001
  0.37150864E+001
 -0.63599538E-002
  0.37625785E+001
  0.13463489E-002
  0.39157448E+001
  0.22250323E-002
  0.37758405E+001
 -0.14067937E-002
  0.37998844E+001
 -0.15175484E-003
  0.43459621E+001
  0.60219938E-002
  0.22494345E+001
 -0.24745317E-001
 -0.27059359E-001
  0.20358333E-002
  0.00000000E+000
  0.00000000E+000
  0.50129804E-001
 -0.00000000E+000
  0.00000000E+000
  0.43769850E-001
 -0.00000000E+000
  0.00000000E+000
  0.45116199E-001
 -0.00000000E+000
  0.00000000E+000
  0.47341231E-001
 -0.00000000E+000
  0.00000000E+000
  0.45934438E-001
 -0.00000000E+000
  0.00000000E+000
  0.45782683E-001
 -0.00000000E+000
  0.00000000E+000
  0.51804677E-001
 -0.00000000E+000
  0.00000000E+000
  0.27059359E-001
 -0.00000000E+000
  0.00000000E+000
 -0.00000000E+000
  0.15998965E+002
 -0.15998965E+002
  0.90064370E+001
  0.69925275E+001
  0.60544767E+001
  0.29519603E+001
  0.73006150E+001
 -0.12461383E+001
  0.85765774E+001
 -0.12759624E+001
  0.79693996E+001
  0.60717775E+000
  0.72480192E+001
  0.72138038E+000
  0.96793371E+001
 -0.24313178E+001
  0.99123629E+001
 -0.23302588E+000
  0.99123629E+001
  0.00000000E+000
 -0.15998965E+002
  0.00000000E+000
  0.69925275E+001
  0.00000000E+000
  0.29519603E+001
  0.00000000E+000
 -0.12461383E+001
  0.00000000E+000
 -0.12759624E+001
  0.00000000E+000
  0.60717775E+000
  0.00000000E+000
  0.72138038E+000
  0.00000000E+000
 -0.24313178E+001
  0.00000000E+000
 -0.23302588E+000
  0.99123629E+001
 -0.12773314E+002
 -0.32256505E+001
 -0.71085026E+001
  0.13277161E+001
 -0.47678784E+001
  0.61133605E+000
 -0.57569888E+001
 -0.25702784E+000
 -0.67693015E+001
 -0.26364967E+000
 -0.62876058E+001
  0.12548201E+000
 -0.57141066E+001
  0.14788120E+000
 -0.76404378E+001
 -0.50498659E+000
 -0.78336318E+001
 -0.39831881E-001
  0.20787311E+001
 -0.31878192E+001
 -0.37831218E-001
 -0.18745597E+001
  0.14456477E-001
 -0.12697514E+001
  0.65277625E-002
 -0.15248765E+001
 -0.19027177E-002
 -0.17864326E+001
 -0.20935815E-002
 -0.16619089E+001
  0.95830135E-003
 -0.15148379E+001
  0.81028700E-003
 -0.20138719E+001
 -0.59526030E-002
 -0.20534908E+001
 -0.21301071E-003
  0.25240302E-001
 -0.37831218E-001
 -0.00000000E+000
 -0.00000000E+000
 -0.23374740E-001
 -0.00000000E+000
 -0.00000000E+000
 -0.16846978E-001
 -0.00000000E+000
 -0.00000000E+000
 -0.18749696E-001
 -0.00000000E+000
 -0.00000000E+000
 -0.20843277E-001
 -0.00000000E+000
 -0.00000000E+000
 -0.19884976E-001
 -0.00000000E+000
 -0.00000000E+000
 -0.19074689E-001
 -0.00000000E+000
 -0.00000000E+000
 -0.25027292E-001
 -0.00000000E+000
 -0.00000000E+000
 -0.25240302E-001
 -0.00000000E+000
 -0.00000000E+000
  0.00000000E+000
  0.54940278E+001
 -0.54940278E+001
  0.11602036E+002
 -0.61080082E+001
  0.87386187E+001
  0.28634173E+001
  0.99311391E+001
 -0.11925204E+001
  0.11232413E+002
 -0.13012737E+001
  0.10735934E+002
  0.49647891E+000
  0.10223402E+002
  0.51253147E+000
  0.12589645E+002
 -0.23662430E+001
  0.34009931E+001
  0.91886523E+001
  0.34009931E+001
  0.00000000E+000
 -0.54940278E+001
  0.00000000E+000
 -0.61080082E+001
  0.00000000E+000
  0.28634173E+001
  0.00000000E+000
 -0.11925204E+001
  0.00000000E+000
 -0.13012737E+001
  0.00000000E+000
  0.49647891E+000
  0.00000000E+000
  0.51253147E+000
  0.00000000E+000
 -0.23662430E+001
  0.00000000E+000
  0.91886523E+001
  0.34009931E+001
 -0.44143772E+001
 -0.10796506E+001
 -0.93155437E+001
 -0.12068418E+001
 -0.70263036E+001
  0.57417728E+000
 -0.79803213E+001
 -0.23850265E+000
 -0.90216859E+001
 -0.25990912E+000
 -0.86241805E+001
  0.98973503E-001
 -0.82146266E+001
  0.10297754E+000
 -0.10104631E+002
 -0.47623825E+000
 -0.27306955E+001
  0.18147164E+001
  0.67029763E+000
 -0.10674822E+001
 -0.12168383E-001
 -0.22601309E+001
 -0.14193089E-001
 -0.16920466E+001
  0.60929708E-002
 -0.19286953E+001
 -0.18539712E-002
 -0.21864031E+001
 -0.22012529E-002
 -0.20882739E+001
  0.84422521E-003
 -0.19858451E+001
  0.54879671E-003
 -0.24566168E+001
 -0.54665826E-002
 -0.66265053E+000
  0.20750192E-001
  0.76470951E-002
 -0.12168383E-001
 -0.00000000E+000
 -0.00000000E+000
 -0.26361473E-001
 -0.00000000E+000
 -0.00000000E+000
 -0.20268502E-001
 -0.00000000E+000
 -0.00000000E+000
 -0.22122473E-001
 -0.00000000E+000
 -0.00000000E+000
 -0.24323726E-001
 -0.00000000E+000
 -0.00000000E+000
 -0.23479501E-001
 -0.00000000E+000
 -0.00000000E+000
 -0.22930704E-001
 -0.00000000E+000
 -0.00000000E+000
 -0.28397287E-001
 -0.00000000E+000
 -0.00000000E+000
 -0.76470951E-002
 -0.00000000E+000
 -0.00000000E+000
  0.00000000E+000
  0.39009606E-001
 -0.39009606E-001
  0.22861242E+000
 -0.18960281E+000
  0.14133737E-001
  0.21447868E+000
 -0.29207076E-001
  0.43340813E-001
 -0.99309434E-001
  0.70102357E-001
 -0.13812853E+000
  0.38819097E-001
 -0.16615768E+000
  0.28029149E-001
 -0.18818331E+000
  0.22025633E-001
 -0.29754664E+000
  0.10936333E+000
 -0.29754664E+000
  0.00000000E+000
 -0.39009606E-001
  0.00000000E+000
 -0.18960281E+000
  0.00000000E+000
  0.21447868E+000
  0.00000000E+000
  0.43340813E-001
  0.00000000E+000
  0.70102357E-001
  0.00000000E+000
  0.38819097E-001
  0.00000000E+000
  0.28029149E-001
  0.00000000E+000
  0.22025633E-001
  0.00000000E+000
  0.10936333E+000
 -0.29754664E+000
 -0.23124441E-001
 -0.15885165E-001
 -0.19284872E+000
 -0.19878529E-001
 -0.13408085E-001
  0.35038042E-001
  0.21112053E-001
  0.88206752E-002
  0.78149145E-001
  0.13065265E-001
  0.10946045E+000
  0.75077901E-002
  0.13217575E+000
  0.53138460E-002
  0.14980287E+000
  0.43985183E-002
  0.23743297E+000
  0.21733232E-001
 -0.60113674E-001
 -0.15695824E-001
 -0.18934076E-003
 -0.35522716E-001
 -0.51637527E-004
 -0.78145232E-003
  0.29677866E-003
  0.79265796E-002
  0.11264327E-003
  0.20867785E-001
  0.12405976E-003
  0.28305413E-001
  0.70162431E-004
  0.33575191E-001
  0.44067848E-004
  0.37937774E-001
  0.35934829E-004
  0.59422186E-001
  0.24882016E-003
 -0.69148868E-003
 -0.18934076E-003
 -0.00000000E+000
 -0.00000000E+000
 -0.24097829E-003
 -0.00000000E+000
 -0.00000000E+000
  0.55800373E-004
  0.00000000E+000
  0.00000000E+000
  0.16844364E-003
 -0.00000000E+000
  0.00000000E+000
  0.29250341E-003
 -0.00000000E+000
  0.00000000E+000
  0.36266584E-003
 -0.00000000E+000
  0.00000000E+000
  0.40673368E-003
 -0.00000000E+000
  0.00000000E+000
  0.44266851E-003
 -0.00000000E+000
  0.00000000E+000
  0.69148868E-003
 -0.00000000E+000
  0.00000000E+000
 -0.00000000E+000
 -0.76750605E-001
  0.76750605E-001
 -0.75612281E-001
 -0.11383241E-002
 -0.21832865E+000
  0.14271637E+000
 -0.31431791E+000
  0.95989260E-001
 -0.39941719E+000
  0.85099280E-001
 -0.43321307E+000
  0.33795873E-001
 -0.44405321E+000
  0.10840146E-001
 -0.40389794E+000
 -0.40155272E-001
 -0.38519862E+000
 -0.18699321E-001
 -0.38519862E+000
  0.00000000E+000
  0.76750605E-001
  0.00000000E+000
 -0.11383241E-002
  0.00000000E+000
  0.14271637E+000
  0.00000000E+000
  0.95989260E-001
  0.00000000E+000
  0.85099280E-001
  0.00000000E+000
  0.33795873E-001
  0.00000000E+000
  0.10840146E-001
  0.00000000E+000
 -0.40155272E-001
  0.00000000E+000
 -0.18699321E-001
 -0.38519862E+000
  0.62843857E-001
  0.13906748E-001
  0.57395250E-001
  0.43102834E-002
  0.17310789E+000
  0.27003731E-001
  0.24975127E+000
  0.19345879E-001
  0.31796017E+000
  0.16890385E-001
  0.34507345E+000
  0.66825889E-002
  0.35386676E+000
  0.20468383E-002
  0.32204172E+000
 -0.83302305E-002
  0.30743382E+000
 -0.40914188E-002
 -0.77764804E-001
  0.13843415E-001
  0.63332842E-004
  0.18160081E-001
 -0.63821958E-005
  0.44992030E-001
  0.17178095E-003
  0.64198178E-001
  0.13973104E-003
  0.80934843E-001
  0.15372039E-003
  0.87520845E-001
  0.96587215E-004
  0.89482047E-001
  0.85635798E-004
  0.81146095E-001
  0.57217056E-005
  0.76990012E-001
  0.64664345E-004
 -0.77479209E-003
  0.63332842E-004
 -0.00000000E+000
 -0.00000000E+000
  0.56950646E-004
 -0.00000000E+000
 -0.00000000E+000
  0.22873159E-003
 -0.00000000E+000
 -0.00000000E+000
  0.36846263E-003
 -0.00000000E+000
 -0.00000000E+000
  0.52218302E-003
 -0.00000000E+000
 -0.00000000E+000
  0.61877024E-003
 -0.00000000E+000
 -0.00000000E+000
  0.70440604E-003
  0.00000000E+000
  0.00000000E+000
  0.71012774E-003
 -0.00000000E+000
  0.00000000E+000
  0.77479209E-003
 -0.00000000E+000
  0.00000000E+000
 -0.00000000E+000
  0.10603766E+001
 -0.10603766E+001
  0.20977923E+001
 -0.10374157E+001
  0.11341513E+001
  0.96364095E+000
 -0.36473667E+000
  0.14988880E+001
 -0.33234739E+000
 -0.32389286E-001
 -0.46653555E+000
  0.13418817E+000
 -0.48918166E+000
  0.22646103E-001
 -0.44037573E+000
 -0.48805920E-001
 -0.36332241E+000
 -0.77053323E-001
 -0.36332241E+000
  0.00000000E+000
 -0.10603766E+001
  0.00000000E+000
 -0.10374157E+001
  0.00000000E+000
  0.96364095E+000
  0.00000000E+000
  0.14988880E+001
  0.00000000E+000
 -0.32389286E-001
  0.00000000E+000
  0.13418817E+000
  0.00000000E+000
  0.22646103E-001
  0.00000000E+000
 -0.48805920E-001
  0.00000000E+000
 -0.77053323E-001
 -0.36332241E+000
 -0.90077037E+000
 -0.15960625E+000
 -0.17062527E+001
 -0.23193333E+000
 -0.89521816E+000
  0.15260639E+000
  0.29401382E+000
  0.30965604E+000
  0.26233150E+000
 -0.70696891E-003
  0.37141864E+000
  0.25101024E-001
  0.38874649E+000
  0.53182568E-002
  0.35003767E+000
 -0.10097102E-001
  0.28797292E+000
 -0.14988574E-001
 -0.75349489E-001
 -0.15857867E+000
 -0.10275771E-002
 -0.38833566E+000
 -0.21763449E-002
 -0.23639612E+000
  0.66684911E-003
  0.70133890E-001
  0.31260352E-002
  0.69548593E-001
 -0.12167225E-003
  0.94369440E-001
  0.28017772E-003
  0.99590135E-001
  0.97561563E-004
  0.89527236E-001
 -0.34201940E-004
  0.74622044E-001
 -0.83382695E-004
 -0.72744468E-003
 -0.10275771E-002
 -0.00000000E+000
 -0.00000000E+000
 -0.32039221E-002
 -0.00000000E+000
 -0.00000000E+000
 -0.25370730E-002
 -0.00000000E+000
 -0.00000000E+000
  0.58896227E-003
  0.00000000E+000
  0.00000000E+000
  0.46729003E-003
 -0.00000000E+000
  0.00000000E+000
  0.74746775E-003
 -0.00000000E+000
  0.00000000E+000
  0.84502932E-003
 -0.00000000E+000
  0.00000000E+000
  0.81082738E-003
 -0.00000000E+000
  0.00000000E+000
  0.72744468E-003
 -0.00000000E+000
  0.00000000E+000
 -0.00000000E+000
 -0.45791573E+000
  0.45791573E+000
 -0.17036813E+000
 -0.28754760E+000
 -0.47980580E+000
  0.30943767E+000
 -0.61203615E+000
  0.13223035E+000
 -0.76331494E+000
  0.15127879E+000
 -0.93612885E+000
  0.17281391E+000
 -0.10835360E+001
  0.14740717E+000
 -0.11231635E+001
  0.39627436E-001
 -0.12500631E+001
  0.12689963E+000
 -0.12500631E+001
  0.00000000E+000
  0.45791573E+000
  0.00000000E+000
 -0.28754760E+000
  0.00000000E+000
  0.30943767E+000
  0.00000000E+000
  0.13223035E+000
  0.00000000E+000
  0.15127879E+000
  0.00000000E+000
  0.17281391E+000
  0.00000000E+000
  0.14740717E+000
  0.00000000E+000
  0.39627436E-001
  0.00000000E+000
  0.12689963E+000
 -0.12500631E+001
  0.36613799E+000
  0.91777741E-001
  0.11981704E+000
 -0.41226645E-001
  0.37913052E+000
  0.50124186E-001
  0.48474301E+000
  0.26617857E-001
  0.60709242E+000
  0.28929383E-001
  0.74511159E+000
  0.34794740E-001
  0.86265519E+000
  0.29863566E-001
  0.89418056E+000
  0.81020706E-002
  0.99458060E+000
  0.26499582E-001
 -0.25548248E+000
  0.90766224E-001
  0.10115168E-002
  0.50283900E-001
 -0.74432121E-003
  0.99817298E-001
  0.59078817E-003
  0.12629913E+000
  0.13602636E-003
  0.15504503E+000
  0.18348249E-003
  0.18965818E+000
  0.18158900E-003
  0.21936837E+000
  0.15338020E-003
  0.22746245E+000
  0.79856616E-005
  0.25397006E+000
 -0.80285949E-005
 -0.15124189E-002
  0.10115168E-002
  0.00000000E+000
  0.00000000E+000
  0.26719562E-003
 -0.00000000E+000
  0.00000000E+000
  0.85798379E-003
 -0.00000000E+000
  0.00000000E+000
  0.99401015E-003
 -0.00000000E+000
  0.00000000E+000
  0.11774926E-002
 -0.00000000E+000
  0.00000000E+000
  0.13590817E-002
 -0.00000000E+000
  0.00000000E+000
  0.15124619E-002
 -0.00000000E+000
  0.00000000E+000
  0.15204475E-002
 -0.00000000E+000
  0.00000000E+000
  0.15124189E-002
 -0.00000000E+000
  0.00000000E+000
 -0.00000000E+000
 -0.30169843E+000
  0.30169843E+000
 -0.22535660E+000
 -0.76341829E-001
 -0.14176914E+000
 -0.83587462E-001
 -0.28695346E-001
 -0.11307379E+000
  0.12738651E+000
 -0.15608185E+000
  0.28717034E+000
 -0.15978383E+000
  0.45484759E+000
 -0.16767725E+000
  0.55863344E+000
 -0.10378585E+000
  0.76926646E+000
 -0.21063301E+000
  0.76926646E+000
  0.00000000E+000
  0.30169843E+000
  0.00000000E+000
 -0.76341829E-001
  0.00000000E+000
 -0.83587462E-001
  0.00000000E+000
 -0.11307379E+000
  0.00000000E+000
 -0.15608185E+000
  0.00000000E+000
 -0.15978383E+000
  0.00000000E+000
 -0.16767725E+000
  0.00000000E+000
 -0.10378585E+000
  0.00000000E+000
 -0.21063301E+000
  0.76926646E+000
  0.24316019E+000
  0.58538243E-001
  0.17621582E+000
 -0.93974613E-002
  0.11300542E+000
 -0.20377061E-001
  0.23634429E-001
 -0.23702803E-001
 -0.10019728E+000
 -0.32250146E-001
 -0.22719273E+000
 -0.32788387E-001
 -0.36074053E+000
 -0.34129441E-001
 -0.44366702E+000
 -0.20859365E-001
 -0.61195934E+000
 -0.42340690E-001
  0.15730711E+000
  0.57766318E-001
  0.77192537E-003
  0.48388134E-001
 -0.19277702E-004
  0.28034192E-001
 -0.23118700E-004
  0.44529298E-002
 -0.12154133E-003
 -0.27553822E-001
 -0.24339420E-003
 -0.60056554E-001
 -0.28565522E-003
 -0.93844979E-001
 -0.34101608E-003
 -0.11442138E+000
 -0.28296809E-003
 -0.15634496E+000
 -0.41710465E-003
  0.96215060E-003
  0.77192537E-003
  0.00000000E+000
  0.00000000E+000
  0.75264767E-003
 -0.00000000E+000
  0.00000000E+000
  0.72952897E-003
 -0.00000000E+000
  0.00000000E+000
  0.60798763E-003
 -0.00000000E+000
  0.00000000E+000
  0.36459343E-003
 -0.00000000E+000
  0.00000000E+000
  0.78938216E-004
 -0.00000000E+000
  0.00000000E+000
 -0.26207786E-003
 -0.00000000E+000
  0.00000000E+000
 -0.54504595E-003
 -0.00000000E+000
  0.00000000E+000
 -0.96215060E-003
 -0.00000000E+000
  0.00000000E+000
 -0.00000000E+000
  0.14786330E+001
 -0.14786330E+001
  0.16867315E+001
 -0.20809860E+000
  0.55876117E+000
  0.11279704E+001
  0.99009969E-001
  0.45975120E+000
  0.20857472E+000
 -0.10956475E+000
  0.31568729E+000
 -0.10711257E+000
  0.44225575E+000
 -0.12656846E+000
  0.50651188E+000
 -0.64256124E-001
  0.61418589E+000
 -0.10767401E+000
  0.61418589E+000
  0.00000000E+000
 -0.14786330E+001
  0.00000000E+000
 -0.20809860E+000
  0.00000000E+000
  0.11279704E+001
  0.00000000E+000
  0.45975120E+000
  0.00000000E+000
 -0.10956475E+000
  0.00000000E+000
 -0.10711257E+000
  0.00000000E+000
 -0.12656846E+000
  0.00000000E+000
 -0.64256124E-001
  0.00000000E+000
 -0.10767401E+000
  0.61418589E+000
 -0.12543586E+001
 -0.22427435E+000
 -0.14397122E+001
 -0.22745021E-001
 -0.49491361E+000
  0.18317181E+000
 -0.81990482E-001
  0.46828072E-001
 -0.17058900E+000
 -0.20966235E-001
 -0.25237991E+000
 -0.25321661E-001
 -0.35233811E+000
 -0.26610256E-001
 -0.40287464E+000
 -0.13719593E-001
 -0.48778910E+000
 -0.22759551E-001
  0.12639678E+000
 -0.22082331E+000
 -0.34510427E-002
 -0.24244710E+000
 -0.11212316E-002
 -0.61478931E-001
  0.22036456E-002
 -0.17323617E-001
  0.26727576E-002
 -0.37931311E-001
 -0.35854081E-003
 -0.63160081E-001
 -0.92890887E-004
 -0.89513516E-001
 -0.25682024E-003
 -0.10306062E+000
 -0.17248752E-003
 -0.12561490E+000
 -0.20527117E-003
  0.78188161E-003
 -0.34510427E-002
 -0.00000000E+000
 -0.00000000E+000
 -0.45722743E-002
 -0.00000000E+000
 -0.00000000E+000
 -0.23686286E-002
 -0.00000000E+000
 -0.00000000E+000
  0.30412901E-003
  0.00000000E+000
  0.00000000E+000
 -0.54411804E-004
 -0.00000000E+000
  0.00000000E+000
 -0.14730269E-003
 -0.00000000E+000
  0.00000000E+000
 -0.40412293E-003
 -0.00000000E+000
  0.00000000E+000
 -0.57661044E-003
 -0.00000000E+000
  0.00000000E+000
 -0.78188161E-003
 -0.00000000E+000
  0.00000000E+000
 -0.00000000E+000
SCALARS Epsilon double
LOOKUP_TABLE default
  0.23921366E+002
  0.23921366E+002
  0.18971836E+002
  0.21446601E+002
  0.17240385E+002
  0.18106111E+002
  0.13664467E+002
  0.15452426E+002
  0.12242545E+002
  0.12953506E+002
  0.13664467E+002
  0.12953506E+002
  0.17240385E+002
  0.15452426E+002
  0.18971836E+002
  0.18106111E+002
  0.23921366E+002
  0.21446601E+002
  0.23921366E+002
  0.23921366E+002
  0.23921366E+002
  0.18971836E+002
  0.21446601E+002
  0.17240385E+002
  0.18106111E+002
  0.13664467E+002
  0.15452426E+002
  0.12242545E+002
  0.12953506E+002
  0.13664467E+002
  0.12953506E+002
  0.17240385E+002
  0.15452426E+002
  0.18971836E+002
  0.18106111E+002
  0.23921366E+002
  0.21446601E+002
  0.23921366E+002
  0.23921366E+002
  0.23921366E+002
  0.18971836E+002
  0.21446601E+002
  0.17240385E+002
  0.18106111E+002
  0.13664467E+002
  0.15452426E+002
  0.12242545E+002
  0.12953506E+002
  0.13664467E+002
  0.12953506E+002
  0.17240385E+002
  0.15452426E+002
  0.18971836E+002
  0.18106111E+002
  0.23921366E+002
  0.21446601E+002
  0.23921366E+002
  0.23921381E+002
  0.23921396E+002
  0.18971855E+002
  0.21446636E+002
  0.17240406E+002
  0.18106151E+002
  0.13664494E+002
  0.15452474E+002
  0.12242576E+002
  0.12953563E+002
  0.13664494E+002
  0.12953563E+002
  0.17240406E+002
  0.15452474E+002
  0.18971855E+002
  0.18106151E+002
  0.23921381E+002
  0.21446636E+002
  0.23921396E+002
  0.23921412E+002
  0.23921427E+002
  0.23921427E+002
  0.18971894E+002
  0.21446670E+002
  0.18971913E+002
  0.17240449E+002
  0.18106192E+002
  0.17240470E+002
  0.13664548E+002
  0.15452523E+002
  0.13664575E+002
  0.12242636E+002
  0.12953620E+002
  0.12242666E+002
  0.13664548E+002
  0.12953620E+002
  0.13664575E+002
  0.17240449E+002
  0.15452523E+002
  0.17240470E+002
  0.18971894E+002
  0.18106192E+002
  0.18971913E+002
  0.23921412E+002
  0.21446670E+002
  0.23921427E+002
  0.23921427E+002
  0.23921366E+002
  0.23921366E+002
  0.18971836E+002
  0.21446601E+002
  0.17240385E+002
  0.18106111E+002
  0.13664467E+002
  0.15452426E+002
  0.12242545E+002
  0.12953506E+002
  0.13664467E+002
  0.12953506E+002
  0.17240385E+002
  0.15452426E+002
  0.18971836E+002
  0.18106111E+002
  0.23921366E+002
  0.21446601E+002
  0.23921366E+002
  0.23921366E+002
  0.23921366E+002
  0.18971836E+002
  0.21446601E+002
  0.17240385E+002
  0.18106111E+002
  0.13664467E+002
  0.15452426E+002
  0.12242545E+002
  0.12953506E+002
  0.13664467E+002
  0.12953506E+002
  0.17240385E+002
  0.15452426E+002
  0.18971836E+002
  0.18106111E+002
  0.23921366E+002
  0.21446601E+002
  0.23921366E+002
  0.23921366E+002
  0.23921366E+002
  0.18971836E+002
  0.21446601E+002
  0.17240385E+002
  0.18106111E+002
  0.13664467E+002
  0.15452426E+002
  0.12242545E+002
  0.12953506E+002
  0.13664467E+002
  0.12953506E+002
  0.17240385E+002
  0.15452426E+002
  0.18971836E+002
  0.18106111E+002
  0.23921366E+002
  0.21446601E+002
  0.23921366E+002
  0.23921381E+002
  0.23921396E+002
  0.18971855E+002
  0.21446636E+002
  0.17240406E+002
  0.18106151E+002
  0.13664494E+002
  0.15452474E+002