# vtk DataFile Version 2.0
BldPointCP.BldB
ASCII
 
DATASET POLYDATA
POINTS 9 double
  0.57306607E+001  0.99257955E+001  0.10635529E+003
  0.14046716E+002  0.24329626E+002  0.94569332E+002
  0.20680927E+002  0.35820416E+002  0.82326304E+002
  0.25173637E+002  0.43602018E+002  0.70072937E+002
  0.26626277E+002  0.46118065E+002  0.58091453E+002
  0.25173637E+002  0.43602018E+002  0.46109968E+002
  0.20680927E+002  0.35820416E+002  0.33856601E+002
  0.14046716E+002  0.24329626E+002  0.21613573E+002
  0.57306607E+001  0.99257955E+001  0.98276162E+001
  
POINT_DATA 9
SCALARS Gamma_LL double
LOOKUP_TABLE default
  0.00000000E+000
  0.00000000E+000
  0.00000000E+000
  0.00000000E+000
  0.00000000E+000
  0.00000000E+000
  0.00000000E+000
  0.00000000E+000
  0.00000000E+000
VECTORS Vind_CP double
  0.00000000E+000  0.00000000E+000  0.00000000E+000
  0.00000000E+000  0.00000000E+000  0.00000000E+000
  0.00000000E+000  0.00000000E+000  0.00000000E+000
  0.00000000E+000  0.00000000E+000  0.00000000E+000
  0.00000000E+000  0.00000000E+000  0.00000000E+000
  0.00000000E+000  0.00000000E+000  0.00000000E+000
  0.00000000E+000  0.00000000E+000  0.00000000E+000
  0.00000000E+000  0.00000000E+000  0.00000000E+000
  0.00000000E+000  0.00000000E+000  0.00000000E+000
VECTORS Vtot_CP double
  0.17878142E+002 -0.10321950E+002  0.00000000E+000
  0.43822032E+002 -0.25300661E+002  0.00000000E+000
  0.64519011E+002 -0.37250067E+002  0.00000000E+000
  0.78535074E+002 -0.45342246E+002  0.00000000E+000
  0.83066924E+002 -0.47958713E+002  0.00000000E+000
  0.78535074E+002 -0.45342246E+002  0.00000000E+000
  0.64519011E+002 -0.37250067E+002  0.00000000E+000
  0.43822032E+002 -0.25300661E+002  0.00000000E+000
  0.17878142E+002 -0.10321950E+002  0.00000000E+000
VECTORS Vstr_CP double
 -0.17878142E+002  0.10321950E+002  0.00000000E+000
 -0.43822032E+002  0.25300661E+002  0.00000000E+000
 -0.64519011E+002  0.37250067E+002  0.00000000E+000
 -0.78535074E+002  0.45342246E+002  0.00000000E+000
 -0.83066924E+002  0.47958713E+002  0.00000000E+000
 -0.78535074E+002  0.45342246E+002  0.00000000E+000
 -0.64519011E+002  0.37250067E+002  0.00000000E+000
 -0.43822032E+002  0.25300661E+002  0.00000000E+000
 -0.17878142E+002  0.10321950E+002  0.00000000E+000
VECTORS Vwnd_CP double
  0.00000000E+000  0.00000000E+000  0.00000000E+000
  0.00000000E+000  0.00000000E+000  0.00000000E+000
  0.00000000E+000  0.00000000E+000  0.00000000E+000
  0.00000000E+000  0.00000000E+000  0.00000000E+000
  0.00000000E+000  0.00000000E+000  0.00000000E+000
  0.00000000E+000  0.00000000E+000  0.00000000E+000
  0.00000000E+000  0.00000000E+000  0.00000000E+000
  0.00000000E+000  0.00000000E+000  0.00000000E+000
  0.00000000E+000  0.00000000E+000  0.00000000E+000
VECTORS Tangent double
  0.70523883E+000 -0.70896981E+000  0.00000000E+000
  0.86602540E+000 -0.50000000E+000  0.00000000E+000
  0.86602540E+000 -0.50000000E+000  0.00000000E+000
  0.86602540E+000 -0.50000000E+000  0.00000000E+000
  0.86602540E+000 -0.50000000E+000  0.00000000E+000
  0.86602540E+000 -0.50000000E+000  0.00000000E+000
  0.86602540E+000 -0.50000000E+000  0.00000000E+000
  0.86602540E+000 -0.50000000E+000  0.00000000E+000
  0.86602540E+000 -0.50000000E+000  0.00000000E+000
VECTORS Normal double
  0.37234686E+000  0.37038737E+000  0.85098238E+000
  0.32265052E+000  0.55884709E+000  0.76392838E+000
  0.35505429E+000  0.61497207E+000  0.70409218E+000
  0.44797011E+000  0.77590698E+000  0.44417467E+000
  0.50000000E+000  0.86602540E+000  0.35753380E-015
  0.44797011E+000  0.77590698E+000 -0.44417467E+000
  0.35505429E+000  0.61497207E+000 -0.70409218E+000
  0.32265052E+000  0.55884709E+000 -0.76392838E+000
  0.25589144E+000  0.44321698E+000 -0.85911483E+000
VECTORS Orth double
  0.60332082E+000  0.60014582E+000 -0.52519424E+000
  0.38196419E+000  0.66158138E+000 -0.64530104E+000
  0.35204609E+000  0.60976171E+000 -0.71010859E+000
  0.22208734E+000  0.38466655E+000 -0.89594021E+000
  0.17876690E-015  0.30963335E-015 -0.10000000E+001
 -0.22208734E+000 -0.38466655E+000 -0.89594021E+000
 -0.35204609E+000 -0.60976171E+000 -0.71010859E+000
 -0.38196419E+000 -0.66158138E+000 -0.64530104E+000
 -0.42955741E+000 -0.74401526E+000 -0.51178288E+000
