# vtk DataFile Version 2.0
BldPointCP.BldA
ASCII
 
DATASET POLYDATA
POINTS 9 double
 -0.11453421E+002 -0.41273513E+000  0.10635572E+003
 -0.28075124E+002 -0.10119455E+001  0.94570213E+002
 -0.41334628E+002 -0.14901237E+001  0.82326974E+002
 -0.50313663E+002 -0.18141598E+001  0.70073335E+002
 -0.53216842E+002 -0.19189923E+001  0.58091889E+002
 -0.50313509E+002 -0.18143563E+001  0.46110488E+002
 -0.41334417E+002 -0.14904832E+001  0.33856847E+002
 -0.28075130E+002 -0.10121494E+001  0.21613485E+002
 -0.11453893E+002 -0.41287880E+000  0.98275662E+001
  
POINT_DATA 9
SCALARS Gamma_LL double
LOOKUP_TABLE default
 -0.19333652E-002
 -0.49365860E-001
 -0.43286494E-001
 -0.45425457E-001
 -0.48083786E-001
 -0.46846859E-001
 -0.46336558E-001
 -0.51705978E-001
 -0.27013546E-001
VECTORS Vind_CP double
 -0.87820481E-005 -0.21377634E-004 -0.27990240E-004
 -0.10741589E-003  0.70365685E-006  0.10048013E-003
 -0.93353457E-004 -0.89199856E-006  0.65094869E-004
 -0.14116165E-003 -0.19967963E-005  0.48231284E-004
 -0.18938764E-003 -0.24693680E-005 -0.49402461E-006
 -0.14799930E-003 -0.27720372E-005 -0.52465934E-004
 -0.99225336E-004 -0.17332324E-005 -0.72263859E-004
 -0.10725685E-003 -0.24654239E-006 -0.10624883E-003
 -0.37611093E-004 -0.41197553E-005 -0.19102573E-004
VECTORS Vtot_CP double
  0.16363701E+002  0.20630650E+002 -0.83449592E-001
  0.15336072E+002  0.50673973E+002 -0.16940766E+000
  0.14413228E+002  0.74652390E+002 -0.13652954E+000
  0.13740015E+002  0.90847109E+002 -0.85859882E-001
  0.13507260E+002  0.96082264E+002 -0.87057694E-001
  0.13708288E+002  0.90871511E+002 -0.96827783E-001
  0.14380704E+002  0.74700619E+002 -0.43396430E-001
  0.15348051E+002  0.50705974E+002  0.13238084E-001
  0.16458508E+002  0.20647402E+002  0.76773113E-002
VECTORS Vstr_CP double
  0.83629069E+000 -0.20630672E+002  0.83421602E-001
  0.18638210E+001 -0.50673972E+002  0.16950814E+000
  0.27866786E+001 -0.74652391E+002  0.13659464E+000
  0.34598438E+001 -0.90847111E+002  0.85908113E-001
  0.36925511E+001 -0.96082266E+002  0.87057200E-001
  0.34915638E+001 -0.90871514E+002  0.96775317E-001
  0.28191968E+001 -0.74700621E+002  0.43324166E-001
  0.18518420E+001 -0.50705974E+002 -0.13344333E-001
  0.74145432E+000 -0.20647406E+002 -0.76964139E-002
VECTORS Vwnd_CP double
  0.17200000E+002  0.00000000E+000  0.00000000E+000
  0.17200000E+002  0.00000000E+000  0.00000000E+000
  0.17200000E+002  0.00000000E+000  0.00000000E+000
  0.17200000E+002  0.00000000E+000  0.00000000E+000
  0.17200000E+002  0.00000000E+000  0.00000000E+000
  0.17200000E+002  0.00000000E+000  0.00000000E+000
  0.17200000E+002  0.00000000E+000  0.00000000E+000
  0.17200000E+002  0.00000000E+000  0.00000000E+000
  0.17200000E+002  0.00000000E+000  0.00000000E+000
VECTORS Tangent double
 -0.73884735E+000  0.67387283E+000  0.22650652E-004
 -0.36284467E-001  0.99934150E+000  0.10834799E-003
 -0.36383230E-001  0.99933790E+000  0.15256376E-003
 -0.36261701E-001  0.99934233E+000  0.77308273E-004
 -0.36168251E-001  0.99934571E+000 -0.33749855E-004
 -0.36039492E-001  0.99935035E+000 -0.15170782E-003
 -0.35950454E-001  0.99935357E+000 -0.97425901E-004
 -0.35978713E-001  0.99935256E+000 -0.10375496E-004
 -0.36014564E-001  0.99935127E+000 -0.14541502E-005
VECTORS Normal double
 -0.43668332E+000 -0.47881373E+000  0.76160691E+000
 -0.64486526E+000 -0.23496836E-001  0.76393501E+000
 -0.70967025E+000 -0.25944688E-001  0.70405611E+000
 -0.89536126E+000 -0.32523048E-001  0.44415141E+000
 -0.99934571E+000 -0.36168251E-001 -0.50612155E-005
 -0.89536073E+000 -0.32356750E-001 -0.44416461E+000
 -0.70968839E+000 -0.25598760E-001 -0.70405049E+000
 -0.64488838E+000 -0.23225217E-001 -0.76392379E+000
 -0.51144652E+000 -0.18432730E-001 -0.85911739E+000
VECTORS Orth double
 -0.51323705E+000 -0.56270136E+000 -0.64803928E+000
 -0.76343450E+000 -0.27649105E-001 -0.64529318E+000
 -0.70359391E+000 -0.25507566E-001 -0.71014433E+000
 -0.44386181E+000 -0.16036467E-001 -0.89595174E+000
  0.62785772E-005 -0.33544717E-004 -0.10000000E+001
  0.44388097E+000  0.15871634E-001 -0.89594519E+000
  0.70359786E+000  0.25241792E-001 -0.71014991E+000
  0.76342944E+000  0.27478304E-001 -0.64530647E+000
  0.85856008E+000  0.30939994E-001 -0.51177857E+000
