# vtk DataFile Version 2.0

ASCII
 
DATASET POLYDATA
POINTS 20 double
  0.99920072E-015 -0.16653345E-014  0.11318291E+003
  0.10275600E+002 -0.17797861E+002  0.10094036E+003
  0.17522162E+002 -0.30349275E+002  0.88697816E+002
  0.23591572E+002 -0.40861801E+002  0.76455271E+002
  0.26626277E+002 -0.46118065E+002  0.64212725E+002
  0.26626277E+002 -0.46118065E+002  0.51970180E+002
  0.23591572E+002 -0.40861801E+002  0.39727634E+002
  0.17522162E+002 -0.30349275E+002  0.27485089E+002
  0.10275600E+002 -0.17797861E+002  0.15242543E+002
  0.97699626E-014 -0.18651747E-013  0.29999979E+001
 -0.22500000E+001 -0.38971143E+001  0.11318291E+003
  0.64544790E+001 -0.20003986E+002  0.10094036E+003
  0.14840195E+002 -0.31897709E+002  0.88697816E+002
  0.21465073E+002 -0.42089536E+002  0.76455271E+002
  0.24672718E+002 -0.47245953E+002  0.64212725E+002
  0.24634734E+002 -0.47267883E+002  0.51970180E+002
  0.21339653E+002 -0.42161947E+002  0.39727634E+002
  0.14555489E+002 -0.32062084E+002  0.27485089E+002
  0.63784857E+001 -0.20047861E+002  0.15242543E+002
 -0.38971143E+001 -0.22500000E+001  0.29999979E+001
  
POLYGONS 9 45
      4      0      1     11     10
      4      1      2     12     11
      4      2      3     13     12
      4      3      4     14     13
      4      4      5     15     14
      4      5      6     16     15
      4      6      7     17     16
      4      7      8     18     17
      4      8      9     19     18
  
CELL_DATA 9
SCALARS Gamma double
LOOKUP_TABLE default
  0.00000000E+000
  0.00000000E+000
  0.00000000E+000
  0.00000000E+000
  0.00000000E+000
  0.00000000E+000
  0.00000000E+000
  0.00000000E+000
  0.00000000E+000
POINT_DATA 20
VECTORS Uconv double
  0.00000000E+000  0.00000000E+000  0.00000000E+000
  0.00000000E+000  0.00000000E+000  0.00000000E+000
  0.00000000E+000  0.00000000E+000  0.00000000E+000
  0.00000000E+000  0.00000000E+000  0.00000000E+000
  0.00000000E+000  0.00000000E+000  0.00000000E+000
  0.00000000E+000  0.00000000E+000  0.00000000E+000
  0.00000000E+000  0.00000000E+000  0.00000000E+000
  0.00000000E+000  0.00000000E+000  0.00000000E+000
  0.00000000E+000  0.00000000E+000  0.00000000E+000
  0.00000000E+000  0.00000000E+000  0.00000000E+000
  0.00000000E+000  0.00000000E+000  0.00000000E+000
  0.00000000E+000  0.00000000E+000  0.00000000E+000
  0.00000000E+000  0.00000000E+000  0.00000000E+000
  0.00000000E+000  0.00000000E+000  0.00000000E+000
  0.00000000E+000  0.00000000E+000  0.00000000E+000
  0.00000000E+000  0.00000000E+000  0.00000000E+000
  0.00000000E+000  0.00000000E+000  0.00000000E+000
  0.00000000E+000  0.00000000E+000  0.00000000E+000
  0.00000000E+000  0.00000000E+000  0.00000000E+000
  0.00000000E+000  0.00000000E+000  0.00000000E+000
