# vtk DataFile Version 2.0
Sgmt
ASCII
 
DATASET POLYDATA
POINTS 450 double
  0.43982165E-002  0.81607350E-003  0.11318264E+003
 -0.20520125E+002 -0.11101930E+001  0.10094483E+003
 -0.34992774E+002 -0.18942174E+001  0.88702773E+002
 -0.47110476E+002 -0.25517977E+001  0.76457799E+002
 -0.53169495E+002 -0.28814747E+001  0.64214947E+002
 -0.53169418E+002 -0.28814754E+001  0.51972794E+002
 -0.47109707E+002 -0.25535619E+001  0.39730362E+002
 -0.34992516E+002 -0.18952025E+001  0.27484613E+002
 -0.20521245E+002 -0.11107869E+001  0.15242145E+002
  0.59362267E-004  0.12965208E-004  0.30000384E+001
 -0.44890114E+001 -0.24263753E+000  0.11318191E+003
 -0.20761240E+002  0.32954644E+001  0.10094575E+003
 -0.35164681E+002  0.11978761E+001  0.88704736E+002
 -0.47245624E+002 -0.10005069E+000  0.76458729E+002
 -0.53292573E+002 -0.62905878E+000  0.64215182E+002
 -0.53294499E+002 -0.58524372E+000  0.51972031E+002
 -0.47249396E+002  0.42974525E-001  0.39728586E+002
 -0.35176604E+002  0.15254661E+001  0.27484352E+002
 -0.20763926E+002  0.33826645E+001  0.15242123E+002
 -0.24322851E+000  0.44934316E+001  0.30000196E+001
 -0.43206537E+001 -0.16174797E+000  0.11318190E+003
 -0.20526519E+002  0.36688571E+001  0.10094575E+003
 -0.34965405E+002  0.18310269E+001  0.88704738E+002
 -0.47067765E+002  0.75089821E+000  0.76458730E+002
 -0.53123262E+002  0.33088660E+000  0.64215182E+002
 -0.53124396E+002  0.37472922E+000  0.51972030E+002
 -0.47068957E+002  0.89396820E+000  0.39728585E+002
 -0.34971424E+002  0.21587783E+001  0.27484351E+002
 -0.20527634E+002  0.37560914E+001  0.15242122E+002
  0.97401270E-002  0.44970828E+001  0.30000227E+001
 -0.41544223E+001 -0.80994513E-001  0.11318273E+003
 -0.20283903E+002  0.40413479E+001  0.10094144E+003
 -0.34751701E+002  0.24649256E+001  0.88699314E+002
 -0.46875737E+002  0.16046064E+001  0.76455983E+002
 -0.52939839E+002  0.12951849E+001  0.64213178E+002
 -0.52940455E+002  0.13390718E+001  0.51970446E+002
 -0.46877168E+002  0.17489713E+001  0.39727665E+002
 -0.34755955E+002  0.27933811E+001  0.27484935E+002
 -0.20284871E+002  0.41289638E+001  0.15242436E+002
  0.26290307E+000  0.44992713E+001  0.30000073E+001
 -0.39840005E+001 -0.63202621E-006  0.11318291E+003
 -0.20035201E+002  0.44122504E+001  0.10094036E+003
 -0.34528324E+002  0.30968689E+001  0.88697816E+002
 -0.46667145E+002  0.24554691E+001  0.76455271E+002
 -0.52736554E+002  0.22557757E+001  0.64212725E+002
 -0.52736554E+002  0.22996356E+001  0.51970179E+002
 -0.46667145E+002  0.26002916E+001  0.39727634E+002
 -0.34528325E+002  0.34256184E+001  0.27485088E+002
 -0.20035201E+002  0.45000000E+001  0.15242543E+002
  0.51599865E+000  0.44999993E+001  0.30000015E+001
  0.43982165E-002  0.81607350E-003  0.11318264E+003
  0.92996762E+001  0.18328838E+002  0.10093613E+003
  0.15861119E+002  0.31259653E+002  0.88701152E+002
  0.21355632E+002  0.42087707E+002  0.76458777E+002
  0.24101547E+002  0.47499726E+002  0.64214173E+002
  0.24101090E+002  0.47498981E+002  0.51969580E+002
  0.21355087E+002  0.42086520E+002  0.39725048E+002
  0.15860221E+002  0.31258470E+002  0.27482382E+002
  0.92993228E+001  0.18327711E+002  0.15245741E+002
  0.59362267E-004  0.12965208E-004  0.30000384E+001
  0.24625408E+001 -0.37684723E+001  0.11318292E+003
  0.13233350E+002  0.16330298E+002  0.10093652E+003
  0.18622925E+002  0.29858573E+002  0.88701662E+002
  0.23545608E+002  0.40977151E+002  0.76458949E+002
  0.26113263E+002  0.46479173E+002  0.64214226E+002
  0.26152137E+002  0.46459013E+002  0.51969392E+002
  0.23674504E+002  0.40911011E+002  0.39724683E+002
  0.18915081E+002  0.29708408E+002  0.27482450E+002
  0.13312148E+002  0.16291235E+002  0.15245773E+002
  0.40131177E+001 -0.20360029E+001  0.30014137E+001
  0.25662679E+001 -0.38122131E+001  0.11318291E+003
  0.13697325E+002  0.16089305E+002  0.10093652E+003
  0.19329682E+002  0.29518313E+002  0.88701662E+002
  0.24451821E+002  0.40546427E+002  0.76458949E+002
  0.27118154E+002  0.46001308E+002  0.64214225E+002
  0.27156659E+002  0.45980452E+002  0.51969392E+002
  0.24579506E+002  0.40477975E+002  0.39724683E+002
  0.19619084E+002  0.29362911E+002  0.27482451E+002
  0.13775406E+002  0.16048830E+002  0.15245774E+002
  0.41477963E+001 -0.21079521E+001  0.30014144E+001
  0.26649306E+001 -0.38556622E+001  0.11318291E+003
  0.14157513E+002  0.15843217E+002  0.10093965E+003
  0.20027125E+002  0.29161974E+002  0.88698735E+002
  0.25345554E+002  0.40093713E+002  0.76456092E+002
  0.28110409E+002  0.45500631E+002  0.64213124E+002
  0.28148799E+002  0.45479442E+002  0.51969990E+002
  0.25472327E+002  0.40023629E+002  0.39726956E+002
  0.20314532E+002  0.29002611E+002  0.27484504E+002
  0.14234434E+002  0.15800870E+002  0.15243304E+002
  0.42810523E+001 -0.21793867E+001  0.30003025E+001
  0.27659998E+001 -0.38971140E+001  0.11318291E+003
  0.14612721E+002  0.15591736E+002  0.10094036E+003
  0.20720129E+002  0.28800840E+002  0.88697816E+002
  0.26234071E+002  0.39634066E+002  0.76455271E+002
  0.29095837E+002  0.44990177E+002  0.64212725E+002
  0.29133820E+002  0.44968247E+002  0.51970180E+002
  0.26359491E+002  0.39561655E+002  0.39727635E+002
  0.21004834E+002  0.28636465E+002  0.27485089E+002
  0.14688714E+002  0.15547861E+002  0.15242544E+002
  0.44131139E+001 -0.22499999E+001  0.29999986E+001
  0.43982165E-002  0.81607350E-003  0.11318264E+003
  0.11222723E+002 -0.17217975E+002  0.10093693E+003
  0.19139782E+002 -0.29365448E+002  0.88700661E+002
  0.25770691E+002 -0.39536828E+002  0.76458534E+002
  0.29084971E+002 -0.44621133E+002  0.64214348E+002
  0.29084920E+002 -0.44621047E+002  0.51969877E+002
  0.25770408E+002 -0.39535755E+002  0.39726269E+002
  0.19139562E+002 -0.29363195E+002  0.27483730E+002
  0.11222350E+002 -0.17217242E+002  0.15245554E+002
  0.59362267E-004  0.12965208E-004  0.30000384E+001
 -0.20320995E+001 -0.40119980E+001  0.11318272E+003
  0.75267091E+001 -0.19627838E+002  0.10093770E+003
  0.16545448E+002 -0.31056610E+002  0.88701197E+002
  0.23713628E+002 -0.40877657E+002  0.76458700E+002
  0.27195507E+002 -0.45853388E+002  0.64214428E+002
  0.27158891E+002 -0.45877525E+002  0.51969629E+002
  0.23591896E+002 -0.40955473E+002  0.39725953E+002
  0.16269901E+002 -0.31233999E+002  0.27483721E+002
  0.74526369E+001 -0.19674733E+002  0.15245558E+002
 -0.37697112E+001 -0.24573898E+001  0.29986820E+001
 -0.19320297E+001 -0.39747477E+001  0.11318271E+003
  0.73439745E+001 -0.19760216E+002  0.10093770E+003
  0.16155409E+002 -0.31349569E+002  0.88701196E+002
  0.23145539E+002 -0.41298124E+002  0.76458698E+002
  0.26537237E+002 -0.46335762E+002  0.64214428E+002
  0.26500193E+002 -0.46359236E+002  0.51969630E+002
  0.23022428E+002 -0.41373738E+002  0.39725954E+002
  0.15876711E+002 -0.31521966E+002  0.27483722E+002
  0.72690691E+001 -0.19805769E+002  0.15245559E+002
 -0.36413608E+001 -0.23890952E+001  0.29986790E+001
 -0.18346755E+001 -0.39368247E+001  0.11318286E+003
  0.71579747E+001 -0.19884904E+002  0.10093988E+003
  0.15757288E+002 -0.31627029E+002  0.88698641E+002
  0.22565228E+002 -0.41698414E+002  0.76456033E+002
  0.25865424E+002 -0.46796441E+002  0.64213152E+002
  0.25827920E+002 -0.46819193E+002  0.51970026E+002
  0.22441104E+002 -0.41772907E+002  0.39727261E+002
  0.15475577E+002 -0.31796052E+002  0.27484771E+002
  0.70826896E+001 -0.19929906E+002  0.15243237E+002
 -0.35119110E+001 -0.23198756E+001  0.29997207E+001
 -0.17340005E+001 -0.38971146E+001  0.11318291E+003
  0.69704787E+001 -0.20003986E+002  0.10094036E+003
  0.15356194E+002 -0.31897708E+002  0.88697815E+002
  0.21981073E+002 -0.42089535E+002  0.76455270E+002
  0.25188718E+002 -0.47245953E+002  0.64212725E+002
  0.25150734E+002 -0.47267883E+002  0.51970180E+002
  0.21855653E+002 -0.42161947E+002  0.39727634E+002
  0.15071489E+002 -0.32062084E+002  0.27485089E+002
  0.68944854E+001 -0.20047861E+002  0.15242544E+002
 -0.33811157E+001 -0.22499996E+001  0.29999949E+001
 -0.99697657E-001 -0.53545749E-002  0.15120253E+002
 -0.24352951E+001 -0.13164412E+000  0.15120243E+002
 -0.47708804E+001 -0.25817381E+000  0.15120349E+002
 -0.71064622E+001 -0.38476059E+000  0.15120343E+002
 -0.94420687E+001 -0.51084008E+000  0.15120726E+002
 -0.11777670E+002 -0.63746255E+000  0.15120790E+002
 -0.14113250E+002 -0.76388525E+000  0.15120615E+002
 -0.16448825E+002 -0.89030688E+000  0.15120333E+002
 -0.18784400E+002 -0.10167213E+001  0.15120012E+002
 -0.21119973E+002 -0.11431235E+001  0.15119736E+002
 -0.34166770E+000  0.44881352E+001  0.15119929E+002
 -0.26774351E+001  0.43618365E+001  0.15119815E+002
 -0.50146444E+001  0.42352190E+001  0.15119956E+002
 -0.73511343E+001  0.41085829E+001  0.15120321E+002
 -0.96848802E+001  0.39826043E+001  0.15120747E+002
 -0.12020474E+002  0.38559822E+001  0.15120901E+002
 -0.14356044E+002  0.37295601E+001  0.15120762E+002
 -0.16691606E+002  0.36031392E+001  0.15120508E+002
 -0.19027163E+002  0.34767257E+001  0.15120207E+002
 -0.21362654E+002  0.33503280E+001  0.15119713E+002
 -0.88776756E-001  0.44935554E+001  0.15119931E+002
 -0.24264407E+001  0.44093452E+001  0.15119816E+002
 -0.47655518E+001  0.43248409E+001  0.15119956E+002
 -0.71039432E+001  0.42403041E+001  0.15120322E+002
 -0.94395799E+001  0.41563776E+001  0.15120748E+002
 -0.11777076E+002  0.40718458E+001  0.15120901E+002
 -0.14114545E+002  0.39875148E+001  0.15120761E+002
 -0.16452004E+002  0.39031823E+001  0.15120507E+002
 -0.18789461E+002  0.38188560E+001  0.15120206E+002
 -0.21126847E+002  0.37345437E+001  0.15119712E+002
  0.16329121E+000  0.44974793E+001  0.15120098E+002
 -0.21753913E+001  0.44553597E+001  0.15120072E+002
 -0.45144079E+001  0.44131740E+001  0.15120103E+002
 -0.68532072E+001  0.43709841E+001  0.15120187E+002
 -0.91913871E+001  0.43289220E+001  0.15120282E+002
 -0.11530000E+002  0.42867437E+001  0.15120316E+002
 -0.13868602E+002  0.42446023E+001  0.15120279E+002
 -0.16207200E+002  0.42024584E+001  0.15120211E+002
 -0.18545799E+002  0.41603150E+001  0.15120131E+002
 -0.20884373E+002  0.41181743E+001  0.15120018E+002
[...]
CELL_DATA 765
SCALARS Gamma double
LOOKUP_TABLE default
 -0.16115230E+000
  0.16115230E+000
 -0.42476868E+001
  0.40865345E+001
 -0.37148907E+001
 -0.53279613E+000
 -0.38296578E+001
  0.11476712E+000
 -0.40187034E+001
  0.18904555E+000
 -0.38995939E+001
 -0.11910946E+000
 -0.38868845E+001
 -0.12709392E-001
 -0.43913214E+001
  0.50443688E+000
 -0.22737533E+001
 -0.21175681E+001
 -0.22737533E+001
  0.00000000E+000
  0.16115230E+000
  0.00000000E+000
  0.40865345E+001
  0.00000000E+000
 -0.53279613E+000
  0.00000000E+000
  0.11476712E+000
  0.00000000E+000
  0.18904555E+000
  0.00000000E+000
 -0.11910946E+000
  0.00000000E+000
 -0.12709392E-001
  0.00000000E+000
  0.50443688E+000
  0.00000000E+000
 -0.21175681E+001
 -0.22737533E+001
  0.15911647E+000
  0.20358333E-002
  0.41975570E+001
  0.48093971E-001
  0.36711209E+001
 -0.63599538E-002
  0.37845416E+001
  0.13463489E-002
  0.39713622E+001
  0.22250323E-002
  0.38536595E+001
 -0.14067937E-002
  0.38411019E+001
 -0.15175484E-003
  0.43395167E+001
  0.60219938E-002
  0.22466940E+001
 -0.24745317E-001
 -0.27059359E-001
  0.20358333E-002
  0.00000000E+000
  0.00000000E+000
  0.50129804E-001
 -0.00000000E+000
  0.00000000E+000
  0.43769850E-001
 -0.00000000E+000
  0.00000000E+000
  0.45116199E-001
 -0.00000000E+000
  0.00000000E+000
  0.47341231E-001
 -0.00000000E+000
  0.00000000E+000
  0.45934438E-001
 -0.00000000E+000
  0.00000000E+000
  0.45782683E-001
 -0.00000000E+000
  0.00000000E+000
  0.51804677E-001
 -0.00000000E+000
  0.00000000E+000
  0.27059359E-001
 -0.00000000E+000
  0.00000000E+000
 -0.00000000E+000
  0.32316852E+001
 -0.32316852E+001
  0.19130786E+001
  0.13186065E+001
  0.13709975E+001
  0.54208108E+000
  0.15287393E+001
 -0.15774173E+000
  0.17020696E+001
 -0.17333034E+000
  0.16227117E+001
  0.79357879E-001
  0.15550934E+001
  0.67618269E-001
  0.20495208E+001
 -0.49442733E+000
  0.20736592E+001
 -0.24138434E-001
  0.20736592E+001
  0.00000000E+000
 -0.32316852E+001
  0.00000000E+000
  0.13186065E+001
  0.00000000E+000
  0.54208108E+000
  0.00000000E+000
 -0.15774173E+000
  0.00000000E+000
 -0.17333034E+000
  0.00000000E+000
  0.79357879E-001
  0.00000000E+000
  0.67618269E-001
  0.00000000E+000
 -0.49442733E+000
  0.00000000E+000
 -0.24138434E-001
  0.20736592E+001
 -0.31938539E+001
 -0.37831218E-001
 -0.18897039E+001
  0.14456477E-001
 -0.13541505E+001
  0.65277625E-002
 -0.15099896E+001
 -0.19027177E-002
 -0.16812263E+001
 -0.20935815E-002
 -0.16028267E+001
  0.95830135E-003
 -0.15360188E+001
  0.81028700E-003
 -0.20244935E+001
 -0.59526030E-002
 -0.20484189E+001
 -0.21301071E-003
  0.25240302E-001
 -0.37831218E-001
 -0.00000000E+000
 -0.00000000E+000
 -0.23374740E-001
 -0.00000000E+000
 -0.00000000E+000
 -0.16846978E-001
 -0.00000000E+000
 -0.00000000E+000
 -0.18749696E-001
 -0.00000000E+000
 -0.00000000E+000
 -0.20843277E-001
 -0.00000000E+000
 -0.00000000E+000
 -0.19884976E-001
 -0.00000000E+000
 -0.00000000E+000
 -0.19074689E-001
 -0.00000000E+000
 -0.00000000E+000
 -0.25027292E-001
 -0.00000000E+000
 -0.00000000E+000
 -0.25240302E-001
 -0.00000000E+000
 -0.00000000E+000
  0.00000000E+000
  0.10666897E+001
 -0.10666897E+001
  0.23046604E+001
 -0.12379707E+001
  0.17805758E+001
  0.52408458E+000
  0.19417304E+001
 -0.16115458E+000
  0.21331395E+001
 -0.19140912E+000
  0.20593473E+001
  0.73792237E-001
  0.20114431E+001
  0.47904222E-001
  0.24807580E+001
 -0.46931496E+000
  0.66769319E+000
  0.18130649E+001
  0.66769319E+000
  0.00000000E+000
 -0.10666897E+001
  0.00000000E+000
 -0.12379707E+001
  0.00000000E+000
  0.52408458E+000
  0.00000000E+000
 -0.16115458E+000
  0.00000000E+000
 -0.19140912E+000
  0.00000000E+000
  0.73792237E-001
  0.00000000E+000
  0.47904222E-001
  0.00000000E+000
 -0.46931496E+000
  0.00000000E+000
  0.18130649E+001
  0.66769319E+000
 -0.10545213E+001
 -0.12168383E-001
 -0.22782990E+001
 -0.14193089E-001
 -0.17603073E+001
  0.60929708E-002
 -0.19196080E+001
 -0.18539712E-002
 -0.21088158E+001
 -0.22012529E-002
 -0.20358678E+001
  0.84422521E-003
 -0.19885124E+001
  0.54879671E-003
 -0.24523608E+001
 -0.54665826E-002
 -0.66004609E+000
  0.20750192E-001
  0.76470951E-002
 -0.12168383E-001
 -0.00000000E+000
 -0.00000000E+000
 -0.26361473E-001
 -0.00000000E+000
 -0.00000000E+000
 -0.20268502E-001
 -0.00000000E+000
 -0.00000000E+000
 -0.22122473E-001
 -0.00000000E+000
 -0.00000000E+000
 -0.24323726E-001
 -0.00000000E+000
 -0.00000000E+000
 -0.23479501E-001
 -0.00000000E+000
 -0.00000000E+000
 -0.22930704E-001
 -0.00000000E+000
 -0.00000000E+000
 -0.28397287E-001
 -0.00000000E+000
 -0.00000000E+000
 -0.76470951E-002
 -0.00000000E+000
 -0.00000000E+000
  0.00000000E+000
  0.15059732E-001
 -0.15059732E-001
  0.21321891E-001
 -0.62621594E-002
 -0.46766424E-002
  0.25998533E-001
 -0.14159263E-001
  0.94826203E-002
 -0.24661640E-001
  0.10502378E-001
 -0.30590223E-001
  0.59285828E-002
 -0.34305997E-001
  0.37157740E-002
 -0.37281951E-001
  0.29759535E-002
 -0.58270370E-001
  0.20988419E-001
 -0.58270370E-001
  0.00000000E+000
 -0.15059732E-001
  0.00000000E+000
 -0.62621594E-002
  0.00000000E+000
  0.25998533E-001
  0.00000000E+000
  0.94826203E-002
  0.00000000E+000
  0.10502378E-001
  0.00000000E+000
  0.59285828E-002
  0.00000000E+000
  0.37157740E-002
  0.00000000E+000
  0.29759535E-002
  0.00000000E+000
  0.20988419E-001
 -0.58270370E-001
 -0.14870391E-001
 -0.18934076E-003
 -0.21080913E-001
 -0.51637527E-004
  0.46208421E-002
  0.29677866E-003
  0.13990819E-001
  0.11264327E-003
  0.24369137E-001
  0.12405976E-003
  0.30227557E-001
  0.70162431E-004
  0.33899264E-001
  0.44067848E-004
  0.36839282E-001
  0.35934829E-004
  0.57578881E-001
  0.24882016E-003
 -0.69148868E-003
 -0.18934076E-003
 -0.00000000E+000
 -0.00000000E+000
 -0.24097829E-003
 -0.00000000E+000
 -0.00000000E+000
  0.55800373E-004
  0.00000000E+000
  0.00000000E+000
  0.16844364E-003
 -0.00000000E+000
  0.00000000E+000
  0.29250341E-003
 -0.00000000E+000
  0.00000000E+000
  0.36266584E-003
 -0.00000000E+000
  0.00000000E+000
  0.40673368E-003
 -0.00000000E+000
  0.00000000E+000
  0.44266851E-003
 -0.00000000E+000
  0.00000000E+000
  0.69148868E-003
 -0.00000000E+000
  0.00000000E+000
 -0.00000000E+000
 -0.59210567E-002
  0.59210567E-002
 -0.50710679E-002
 -0.84998877E-003
 -0.19937785E-001
  0.14866717E-001
 -0.31963099E-001
  0.12025314E-001
 -0.45184339E-001
  0.13221240E-001
 -0.53515052E-001
  0.83307132E-002
 -0.60912965E-001
  0.73979131E-002
 -0.61464413E-001
  0.55144754E-003
 -0.67345299E-001
  0.58808865E-002
 -0.67345299E-001
  0.00000000E+000
  0.59210567E-002
  0.00000000E+000
 -0.84998877E-003
  0.00000000E+000
  0.14866717E-001
  0.00000000E+000
  0.12025314E-001
  0.00000000E+000
  0.13221240E-001
  0.00000000E+000
  0.83307132E-002
  0.00000000E+000
  0.73979131E-002
  0.00000000E+000
  0.55144754E-003
  0.00000000E+000
  0.58808865E-002
 -0.67345299E-001
  0.58577239E-002
  0.63332842E-004
  0.50141173E-002
 -0.63821958E-005
  0.19709053E-001
  0.17178095E-003
  0.31594636E-001
  0.13973104E-003
  0.44662156E-001
  0.15372039E-003
  0.52896282E-001
  0.96587215E-004
  0.60208559E-001
  0.85635798E-004
  0.60754285E-001
  0.57217056E-005
  0.66570507E-001
  0.64664345E-004
 -0.77479209E-003
  0.63332842E-004
 -0.00000000E+000
 -0.00000000E+000
  0.56950646E-004
 -0.00000000E+000
 -0.00000000E+000
  0.22873159E-003
 -0.00000000E+000
 -0.00000000E+000
  0.36846263E-003
 -0.00000000E+000
 -0.00000000E+000
  0.52218302E-003
 -0.00000000E+000
 -0.00000000E+000
  0.61877024E-003
 -0.00000000E+000
 -0.00000000E+000
  0.70440604E-003
  0.00000000E+000
  0.00000000E+000
  0.71012774E-003
 -0.00000000E+000
  0.00000000E+000
  0.77479209E-003
 -0.00000000E+000
  0.00000000E+000
 -0.00000000E+000
  0.94373870E-001
 -0.94373870E-001
  0.28154081E+000
 -0.18716694E+000
  0.20955287E+000
  0.71987937E-001
 -0.52518069E-001
  0.26207094E+000
 -0.39680205E-001
 -0.12837864E-001
 -0.64016180E-001
  0.24335975E-001
 -0.71839517E-001
  0.78233366E-002
 -0.68833357E-001
 -0.30061594E-002
 -0.61322721E-001
 -0.75106361E-002
 -0.61322721E-001
  0.00000000E+000
 -0.94373870E-001
  0.00000000E+000
 -0.18716694E+000
  0.00000000E+000
  0.71987937E-001
  0.00000000E+000
  0.26207094E+000
  0.00000000E+000
 -0.12837864E-001
  0.00000000E+000
  0.24335975E-001
  0.00000000E+000
  0.78233366E-002
  0.00000000E+000
 -0.30061594E-002
  0.00000000E+000
 -0.75106361E-002
 -0.61322721E-001
 -0.93346293E-001
 -0.10275771E-002
 -0.27833688E+000
 -0.21763449E-002
 -0.20701580E+000
  0.66684911E-003
  0.51929107E-001
  0.31260352E-002
  0.39212915E-001
 -0.12167225E-003
  0.63268712E-001
  0.28017772E-003
  0.70994487E-001
  0.97561563E-004
  0.68022530E-001
 -0.34201940E-004
  0.60595276E-001
 -0.83382695E-004
 -0.72744468E-003
 -0.10275771E-002
 -0.00000000E+000
 -0.00000000E+000
 -0.32039221E-002
 -0.00000000E+000
 -0.00000000E+000
 -0.25370730E-002
 -0.00000000E+000
 -0.00000000E+000
  0.58896227E-003
  0.00000000E+000
  0.00000000E+000
  0.46729003E-003
 -0.00000000E+000
  0.00000000E+000
  0.74746775E-003
 -0.00000000E+000
  0.00000000E+000
  0.84502932E-003
 -0.00000000E+000
  0.00000000E+000
  0.81082738E-003
 -0.00000000E+000
  0.00000000E+000
  0.72744468E-003
 -0.00000000E+000
  0.00000000E+000
 -0.00000000E+000
 -0.86509010E-001
  0.86509010E-001
 -0.22014830E-001
 -0.64494180E-001
 -0.73003281E-001
  0.50988451E-001
 -0.84588593E-001
  0.11585312E-001
 -0.10032291E+000
  0.15734321E-001
 -0.11574079E+000
  0.15417878E-001
 -0.12875727E+000
  0.13016481E-001
 -0.12943818E+000
  0.68090639E-003
 -0.12871585E+000
 -0.72232614E-003
 -0.12871585E+000
  0.00000000E+000
  0.86509010E-001
  0.00000000E+000
 -0.64494180E-001
  0.00000000E+000
  0.50988451E-001
  0.00000000E+000
  0.11585312E-001
  0.00000000E+000
  0.15734321E-001
  0.00000000E+000
  0.15417878E-001
  0.00000000E+000
  0.13016481E-001
  0.00000000E+000
  0.68090639E-003
  0.00000000E+000
 -0.72232614E-003
 -0.12871585E+000
  0.85497493E-001
  0.10115168E-002
  0.21747634E-001
 -0.74432121E-003
  0.72145297E-001
  0.59078817E-003
  0.83594583E-001
  0.13602636E-003
  0.99145421E-001
  0.18348249E-003
  0.11438171E+000
  0.18158900E-003
  0.12724481E+000
  0.15338020E-003
  0.12791773E+000
  0.79856616E-005
  0.12720343E+000
 -0.80285949E-005
 -0.15124189E-002
  0.10115168E-002
  0.00000000E+000
  0.00000000E+000
  0.26719562E-003
 -0.00000000E+000
  0.00000000E+000
  0.85798379E-003
 -0.00000000E+000
  0.00000000E+000
  0.99401015E-003
 -0.00000000E+000
  0.00000000E+000
  0.11774926E-002
 -0.00000000E+000
  0.00000000E+000
  0.13590817E-002
 -0.00000000E+000
  0.00000000E+000
  0.15124619E-002
 -0.00000000E+000
  0.00000000E+000
  0.15204475E-002
 -0.00000000E+000
  0.00000000E+000
  0.15124189E-002
 -0.00000000E+000
  0.00000000E+000
 -0.00000000E+000
 -0.66927256E-001
  0.66927256E-001
 -0.64567913E-001
 -0.23593432E-002
 -0.62868596E-001
 -0.16993166E-002
 -0.52554014E-001
 -0.10314582E-001
 -0.31819490E-001
 -0.20734525E-001
 -0.74721495E-002
 -0.24347340E-001
  0.21678203E-001
 -0.29150352E-001
  0.46019455E-001
 -0.24341252E-001
  0.82108650E-001
 -0.36089195E-001
  0.82108650E-001
  0.00000000E+000
  0.66927256E-001
  0.00000000E+000
 -0.23593432E-002
  0.00000000E+000
 -0.16993166E-002
  0.00000000E+000
 -0.10314582E-001
  0.00000000E+000
 -0.20734525E-001
  0.00000000E+000
 -0.24347340E-001
  0.00000000E+000
 -0.29150352E-001
  0.00000000E+000
 -0.24341252E-001
  0.00000000E+000
 -0.36089195E-001
  0.82108650E-001
  0.66155331E-001
  0.77192537E-003
  0.63815265E-001
 -0.19277702E-004
  0.62139067E-001
 -0.23118700E-004
  0.51946026E-001
 -0.12154133E-003
  0.31454896E-001
 -0.24339420E-003
  0.73932113E-002
 -0.28565522E-003
 -0.21416125E-001
 -0.34101608E-003
 -0.45474409E-001
 -0.28296809E-003
 -0.81146499E-001
 -0.41710465E-003
  0.96215060E-003
  0.77192537E-003
  0.00000000E+000
  0.00000000E+000
  0.75264767E-003
 -0.00000000E+000
  0.00000000E+000
  0.72952897E-003
 -0.00000000E+000
  0.00000000E+000
  0.60798763E-003
 -0.00000000E+000
  0.00000000E+000
  0.36459343E-003
 -0.00000000E+000
  0.00000000E+000
  0.78938216E-004
 -0.00000000E+000
  0.00000000E+000
 -0.26207786E-003
 -0.00000000E+000
  0.00000000E+000
 -0.54504595E-003
 -0.00000000E+000
  0.00000000E+000
 -0.96215060E-003
 -0.00000000E+000
  0.00000000E+000
 -0.00000000E+000
  0.30183973E+000
 -0.30183973E+000
  0.38952927E+000
 -0.87689536E-001
  0.19725605E+000
  0.19227322E+000
 -0.25860993E-001
  0.22311704E+000
  0.41317415E-002
 -0.29992735E-001
  0.12019511E-001
 -0.78877690E-002
  0.33769972E-001
 -0.21750462E-001
  0.48363005E-001
 -0.14593033E-001
  0.65444016E-001
 -0.17081011E-001
  0.65444016E-001
  0.00000000E+000
 -0.30183973E+000
  0.00000000E+000
 -0.87689536E-001
  0.00000000E+000
  0.19227322E+000
  0.00000000E+000
  0.22311704E+000
  0.00000000E+000
 -0.29992735E-001
  0.00000000E+000
 -0.78877690E-002
  0.00000000E+000
 -0.21750462E-001
  0.00000000E+000
 -0.14593033E-001
  0.00000000E+000
 -0.17081011E-001
  0.65444016E-001
 -0.29838869E+000
 -0.34510427E-002
 -0.38495699E+000
 -0.11212316E-002
 -0.19488742E+000
  0.22036456E-002
  0.25556864E-001
  0.26727576E-002
 -0.40773297E-002
 -0.35854081E-003
 -0.11872208E-001
 -0.92890887E-004
 -0.33365849E-001
 -0.25682024E-003
 -0.47786394E-001
 -0.17248752E-003
 -0.64662134E-001
 -0.20527117E-003
  0.78188161E-003
 -0.34510427E-002
 -0.00000000E+000
 -0.00000000E+000
 -0.45722743E-002
 -0.00000000E+000
 -0.00000000E+000
 -0.23686286E-002
 -0.00000000E+000
 -0.00000000E+000
  0.30412901E-003
  0.00000000E+000
  0.00000000E+000
 -0.54411804E-004
 -0.00000000E+000
  0.00000000E+000
 -0.14730269E-003
 -0.00000000E+000
  0.00000000E+000
 -0.40412293E-003
 -0.00000000E+000
  0.00000000E+000
 -0.57661044E-003
 -0.00000000E+000
  0.00000000E+000
 -0.78188161E-003
 -0.00000000E+000
  0.00000000E+000
 -0.00000000E+000
SCALARS Epsilon double
LOOKUP_TABLE default
  0.23921366E+002
  0.23921366E+002
  0.18971836E+002
  0.21446601E+002
  0.17240385E+002
  0.18106111E+002
  0.13664467E+002
  0.15452426E+002
  0.12242545E+002
  0.12953506E+002
  0.13664467E+002
  0.12953506E+002
  0.17240385E+002
  0.15452426E+002
  0.18971836E+002
  0.18106111E+002
  0.23921366E+002
  0.21446601E+002
  0.23921366E+002
  0.23921366E+002
  0.23921366E+002
  0.18971836E+002
  0.21446601E+002
  0.17240385E+002
  0.18106111E+002
  0.13664467E+002
  0.15452426E+002
  0.12242545E+002
  0.12953506E+002
  0.13664467E+002
  0.12953506E+002
  0.17240385E+002
  0.15452426E+002
  0.18971836E+002
  0.18106111E+002
  0.23921366E+002
  0.21446601E+002
  0.23921366E+002
  0.23921366E+002
  0.23921366E+002
  0.18971836E+002
  0.21446601E+002
  0.17240385E+002
  0.18106111E+002
  0.13664467E+002
  0.15452426E+002
  0.12242545E+002
  0.12953506E+002
  0.13664467E+002
  0.12953506E+002
  0.17240385E+002
  0.15452426E+002
  0.18971836E+002
  0.18106111E+002
  0.23921366E+002
  0.21446601E+002
  0.23921366E+002
  0.23921381E+002
  0.23921396E+002
  0.23921396E+002
  0.18971855E+002
  0.21446636E+002
  0.18971875E+002
  0.17240406E+002
  0.18106151E+002
  0.17240428E+002
  0.13664494E+002
  0.15452474E+002
  0.13664521E+002
  0.12242576E+002
  0.12953563E+002
  0.12242606E+002
  0.13664494E+002
  0.12953563E+002
  0.13664521E+002
  0.17240406E+002
  0.15452474E+002
  0.17240428E+002
  0.18971855E+002
  0.18106151E+002
  0.18971875E+002
  0.23921381E+002
  0.21446636E+002
  0.23921396E+002
  0.23921396E+002
  0.23921366E+002
  0.23921366E+002
  0.18971836E+002
  0.21446601E+002
  0.17240385E+002
  0.18106111E+002
  0.13664467E+002
  0.15452426E+002
  0.12242545E+002
  0.12953506E+002
  0.13664467E+002
  0.12953506E+002
  0.17240385E+002
  0.15452426E+002
  0.18971836E+002
  0.18106111E+002
  0.23921366E+002
  0.21446601E+002
  0.23921366E+002
  0.23921366E+002
  0.23921366E+002
  0.18971836E+002
  0.21446601E+002
  0.17240385E+002
  0.18106111E+002
  0.13664467E+002
  0.15452426E+002
  0.12242545E+002
  0.12953506E+002
  0.13664467E+002
  0.12953506E+002
  0.17240385E+002
  0.15452426E+002
  0.18971836E+002
  0.18106111E+002
  0.23921366E+002
  0.21446601E+002
  0.23921366E+002
  0.23921366E+002
  0.23921366E+002
  0.18971836E+002
  0.21446601E+002
  0.17240385E+002
  0.18106111E+002
  0.13664467E+002
  0.15452426E+002
  0.12242545E+002
  0.12953506E+002
  0.13664467E+002
  0.12953506E+002
  0.17240385E+002
  0.15452426E+002
  0.18971836E+002
  0.18106111E+002
  0.23921366E+002
  0.21446601E+002
  0.23921366E+002
  0.23921381E+002
  0.23921396E+002
  0.23921396E+002
  0.18971855E+002
  0.21446636E+002
  0.18971875E+002
  0.17240406E+002
  0.18106151E+002
  0.17240428E+002
  0.13664494E+002
  0.15452474E+002
  0.13664521E+002
  0.12242576E+002
  0.12953563E+002
  0.12242606E+002
  0.13664494E+002
  0.12953563E+002
  0.13664521E+002
  0.17240406E+002
  0.15452474E+002
  0.17240428E+002
  0.18971855E+002
  0.18106151E+002
  0.18971875E+002
  0.23921381E+002
  0.21446636E+002
  0.23921396E+002
  0.23921396E+002
  0.23921366E+002
  0.23921366E+002
  0.18971836E+002
  0.21446601E+002
  0.17240385E+002
  0.18106111E+002
  0.13664467E+002
  0.15452426E+002
  0.12242545E+002
  0.12953506E+002
  0.13664467E+002
  0.12953506E+002
  0.17240385E+002
  0.15452426E+002
  0.18971836E+002
  0.18106111E+002
  0.23921366E+002
  0.21446601E+002
  0.23921366E+002
  0.23921366E+002
  0.23921366E+002
  0.18971836E+002
  0.21446601E+002
  0.17240385E+002
  0.18106111E+002
  0.13664467E+002
  0.15452426E+002
  0.12242545E+002
  0.12953506E+002
  0.13664467E+002
  0.12953506E+002
  0.17240385E+002
  0.15452426E+002
  0.18971836E+002
  0.18106111E+002
  0.23921366E+002
  0.21446601E+002
  0.23921366E+002
  0.23921366E+002
  0.23921366E+002
  0.18971836E+002
  0.21446601E+002
  0.17240385E+002
  0.18106111E+002
  0.13664467E+002
  0.15452426E+002
  0.12242545E+002
  0.12953506E+002
  0.13664467E+002
  0.12953506E+002
  0.17240385E+002
  0.15452426E+002
  0.18971836E+002
  0.18106111E+002
  0.23921366E+002
  0.21446601E+002
  0.23921366E+002
  0.23921381E+002
  0.23921396E+002
  0.23921396E+002
  0.18971855E+002
  0.21446636E+002
  0.18971875E+002
  0.17240406E+002
  0.18106151E+002
  0.17240428E+002
  0.13664494E+002
  0.15452474E+002
  0.13664521E+002
  0.12242576E+002
  0.12953563E+002
  0.12242606E+002
  0.13664494E+002
  0.12953563E+002
  0.13664521E+002
  0.17240406E+002
  0.15452474E+002
  0.17240428E+002
  0.18971855E+002
  0.18106151E+002
  0.18971875E+002
  0.23921381E+002
  0.21446636E+002
  0.23921396E+002
  0.23921396E+002
  0.23389775E+001
  0.23389775E+001
  0.23389775E+001
  0.23389775E+001
  0.23389775E+001
  0.23389775E+001
  0.23389775E+001
  0.23389775E+001
  0.23389775E+001
  0.23389775E+001
  0.23389775E+001
  0.23389775E+001
  0.23389775E+001
  0.23389775E+001
  0.23389775E+001
  0.23389775E+001
  0.23389775E+001
  0.23389775E+001
  0.23389775E+001
  0.23389775E+001
  0.23389775E+001
  0.23389775E+001
  0.23389775E+001
  0.23389775E+001
  0.23389775E+001
  0.23389775E+001
  0.23389775E+001
  0.23389775E+001
  0.23389775E+001
  0.23389775E+001
  0.23389775E+001
  0.23389775E+001
  0.23389775E+001
  0.23389775E+001
  0.23389775E+001
  0.23389775E+001
  0.23389775E+001
  0.23389775E+001
  0.23389775E+001
  0.23389775E+001
  0.23389775E+001
  0.23389775E+001
  0.23389775E+001
  0.23389775E+001
  0.23389775E+001
  0.23389775E+001
  0.23389775E+001
  0.23389775E+001
  0.23389775E+001
  0.23389775E+001
  0.23389775E+001
  0.23389775E+001
  0.23389775E+001
  0.23389775E+001
  0.23389775E+001
  0.23389775E+001
  0.23389775E+001
  0.23391348E+001
  0.23392921E+001
  0.23392921E+001
  0.23391348E+001
  0.23392921E+001
  0.23392921E+001
  0.23391348E+001
  0.23392921E+001
  0.23392921E+001
  0.23391348E+001
  0.23392921E+001
  0.23392921E+001
  0.23391348E+001
  0.23392921E+001
  0.23392921E+001
  0.23391348E+001
  0.23392921E+001
  0.23392921E+001
  0.23391348E+001
  0.23392921E+001
  0.23392921E+001
  0.23391348E+001
  0.23392921E+001
  0.23392921E+001
  0.23391348E+001
  0.23392921E+001
  0.23392921E+001
  0.23392921E+001