# vtk DataFile Version 2.0

ASCII
 
DATASET POLYDATA
POINTS 140 double
  0.16465822E+000  0.36402952E-001  0.11318119E+003
  0.13914954E+002 -0.15172719E+002  0.10083824E+003
  0.23707166E+002 -0.25984918E+002  0.88715515E+002
  0.31937673E+002 -0.34990507E+002  0.76531471E+002
  0.35964280E+002 -0.39364995E+002  0.64223658E+002
  0.35950231E+002 -0.39301535E+002  0.51961360E+002
  0.31902327E+002 -0.34870008E+002  0.39683643E+002
  0.23684359E+002 -0.25907793E+002  0.27448883E+002
  0.13862684E+002 -0.15171742E+002  0.15266858E+002
  0.18460798E-003  0.49774484E-004  0.30001762E+001
 -0.11871492E+001 -0.42557365E+001  0.11316872E+003
  0.10686802E+002 -0.18180504E+002  0.10085297E+003
  0.21405595E+002 -0.28056936E+002  0.88726011E+002
  0.30107800E+002 -0.36627849E+002  0.76529596E+002
  0.34298244E+002 -0.40885800E+002  0.64222157E+002
  0.34255760E+002 -0.40856236E+002  0.51961426E+002
  0.29974117E+002 -0.36614578E+002  0.39683215E+002
  0.21149760E+002 -0.28212281E+002  0.27450514E+002
  0.10548981E+002 -0.18216306E+002  0.15266984E+002
 -0.33235879E+001 -0.30333561E+001  0.29687868E+001
 -0.10913177E+001 -0.42357054E+001  0.11316795E+003
  0.10526253E+002 -0.18369766E+002  0.10083005E+003
  0.21064371E+002 -0.28433179E+002  0.88719166E+002
  0.29608042E+002 -0.37155982E+002  0.76523235E+002
  0.33714999E+002 -0.41482363E+002  0.64218679E+002
  0.33671986E+002 -0.41451064E+002  0.51965716E+002
  0.29472756E+002 -0.37138484E+002  0.39691396E+002
  0.20804733E+002 -0.28582661E+002  0.27458746E+002
  0.10388989E+002 -0.18401340E+002  0.15269508E+002
 -0.32095736E+001 -0.29722074E+001  0.29559351E+001
 -0.10236012E+001 -0.42165967E+001  0.11316847E+003
  0.10347026E+002 -0.18548333E+002  0.10083769E+003
  0.20706761E+002 -0.28790705E+002  0.88713625E+002
  0.29085192E+002 -0.37655648E+002  0.76509066E+002
  0.33115447E+002 -0.42063614E+002  0.64215941E+002
  0.33073237E+002 -0.42043980E+002  0.51971102E+002
  0.28951644E+002 -0.37655687E+002  0.39704331E+002
  0.20446565E+002 -0.28944699E+002  0.27470642E+002
  0.10223645E+002 -0.18580982E+002  0.15272152E+002
 -0.30946728E+001 -0.29097413E+001  0.29467604E+001
 -0.95387121E+000 -0.41952942E+001  0.11316870E+003
  0.10166461E+002 -0.18721081E+002  0.10084477E+003
  0.20345408E+002 -0.29139990E+002  0.88708985E+002
  0.28556520E+002 -0.38145645E+002  0.76496443E+002
  0.32509459E+002 -0.42635425E+002  0.64213755E+002
  0.32467682E+002 -0.42626098E+002  0.51975086E+002
  0.28424333E+002 -0.38161853E+002  0.39714743E+002
  0.20083891E+002 -0.29298300E+002  0.27480020E+002
  0.10055685E+002 -0.18754811E+002  0.15273432E+002
 -0.29783789E+001 -0.28468124E+001  0.29411081E+001
 -0.88185234E+000 -0.41717183E+001  0.11316868E+003
  0.99837547E+001 -0.18888996E+002  0.10084626E+003
  0.19980494E+002 -0.29481273E+002  0.88705624E+002
  0.28022708E+002 -0.38626814E+002  0.76486185E+002
  0.31898072E+002 -0.43198778E+002  0.64212625E+002
  0.31856735E+002 -0.43198445E+002  0.51977175E+002
  0.27891892E+002 -0.38657701E+002  0.39721871E+002
  0.19717081E+002 -0.29643636E+002  0.27486470E+002
  0.98850375E+001 -0.18922919E+002  0.15273666E+002
 -0.28605289E+001 -0.27830371E+001  0.29362021E+001
 -0.80819610E+000 -0.41454716E+001  0.11316730E+003
  0.98004810E+001 -0.19050198E+002  0.10085572E+003
  0.19611994E+002 -0.29814611E+002  0.88703651E+002
  0.27484020E+002 -0.39099497E+002  0.76478666E+002
  0.31282502E+002 -0.43754821E+002  0.64212771E+002
  0.31241797E+002 -0.43762062E+002  0.51977196E+002
  0.27354742E+002 -0.39143334E+002  0.39725524E+002
  0.19346257E+002 -0.29980618E+002  0.27489970E+002
  0.97121582E+001 -0.19084904E+002  0.15272653E+002
 -0.27408164E+001 -0.27186154E+001  0.29363185E+001
 -0.73138071E+000 -0.41169930E+001  0.11316640E+003
  0.96209304E+001 -0.19202443E+002  0.10087828E+003
  0.19239695E+002 -0.30139870E+002  0.88702948E+002
  0.26940400E+002 -0.39563624E+002  0.76474015E+002
  0.30662487E+002 -0.44302967E+002  0.64214215E+002
  0.30622722E+002 -0.44316424E+002  0.51975183E+002
  0.26812918E+002 -0.39618439E+002  0.39725790E+002
  0.18971324E+002 -0.30308925E+002  0.27490808E+002
  0.95366821E+001 -0.19241007E+002  0.15270865E+002
 -0.26191013E+001 -0.26535401E+001  0.29372739E+001
 -0.65113366E+000 -0.40863320E+001  0.11316624E+003
  0.94366556E+001 -0.19352141E+002  0.10088679E+003
  0.18863264E+002 -0.30456831E+002  0.88703269E+002
  0.26390747E+002 -0.40017769E+002  0.76471339E+002
  0.30035983E+002 -0.44840387E+002  0.64216142E+002
  0.29997325E+002 -0.44858590E+002  0.51972196E+002
  0.26265094E+002 -0.40081351E+002  0.39723943E+002
  0.18592081E+002 -0.30628081E+002  0.27489418E+002
  0.93590008E+001 -0.19390910E+002  0.15268250E+002
 -0.24954007E+001 -0.25877872E+001  0.29389711E+001
 -0.56692338E+000 -0.40539090E+001  0.11316499E+003
  0.92545982E+001 -0.19494518E+002  0.10090329E+003
  0.18482324E+002 -0.30765129E+002  0.88704311E+002
  0.25834697E+002 -0.40461232E+002  0.76470458E+002
  0.29401655E+002 -0.45364849E+002  0.64218355E+002
  0.29364138E+002 -0.45386388E+002  0.51968545E+002
  0.25710723E+002 -0.40531326E+002  0.39720453E+002
  0.18208214E+002 -0.30937497E+002  0.27486541E+002
  0.91797061E+001 -0.19534230E+002  0.15261530E+002
 -0.23694648E+001 -0.25218906E+001  0.29409928E+001
 -0.47906992E+000 -0.40183879E+001  0.11316446E+003
  0.90701621E+001 -0.19633176E+002  0.10093031E+003
  0.18094363E+002 -0.31061991E+002  0.88701789E+002
  0.25271650E+002 -0.40892818E+002  0.76470717E+002
  0.28754752E+002 -0.45869738E+002  0.64220288E+002
  0.28718033E+002 -0.45893222E+002  0.51964999E+002
  0.25148950E+002 -0.40967167E+002  0.39716262E+002
  0.17815343E+002 -0.31231839E+002  0.27490229E+002
  0.89978792E+001 -0.19672166E+002  0.15253375E+002
 -0.22423823E+001 -0.24545204E+001  0.29484655E+001
 -0.38628009E+000 -0.39824005E+001  0.11316559E+003
  0.88860719E+001 -0.19764525E+002  0.10094962E+003
  0.17701153E+002 -0.31349244E+002  0.88699485E+002
  0.24701143E+002 -0.41311075E+002  0.76471568E+002
  0.28096757E+002 -0.46355397E+002  0.64221484E+002
  0.28060313E+002 -0.46379526E+002  0.51962186E+002
  0.24579006E+002 -0.41387317E+002  0.39712100E+002
  0.17419538E+002 -0.31517717E+002  0.27489652E+002
  0.88141847E+001 -0.19803875E+002  0.15245639E+002
 -0.21138308E+001 -0.23866223E+001  0.29560824E+001
 -0.28909361E+000 -0.39443396E+001  0.11316537E+003
  0.86991382E+001 -0.19887448E+002  0.10095259E+003
  0.17302138E+002 -0.31626103E+002  0.88695064E+002
  0.24124351E+002 -0.41716824E+002  0.76473216E+002
  0.27429039E+002 -0.46822991E+002  0.64222214E+002
  0.27392412E+002 -0.46846829E+002  0.51960292E+002
  0.24001808E+002 -0.41792863E+002  0.39708274E+002
  0.17019641E+002 -0.31793849E+002  0.27488484E+002
  0.86284709E+001 -0.19929190E+002  0.15239429E+002
 -0.19840488E+001 -0.23177575E+001  0.29577978E+001
 -0.18857445E+000 -0.39045862E+001  0.11316560E+003
  0.85090989E+001 -0.20002939E+002  0.10095937E+003
  0.16902140E+002 -0.31898564E+002  0.88696236E+002
  0.23542569E+002 -0.42111911E+002  0.76475575E+002
  0.26756007E+002 -0.47278585E+002  0.64222992E+002
  0.26719087E+002 -0.47301912E+002  0.51959086E+002
  0.23419124E+002 -0.42186566E+002  0.39704888E+002
  0.16616877E+002 -0.32062030E+002  0.27486339E+002
  0.84367980E+001 -0.20043028E+002  0.15244546E+002
 -0.18530000E+001 -0.22480640E+001  0.29588997E+001
  
POLYGONS 117 585
      4      0      1     11     10
      4      1      2     12     11
      4      2      3     13     12
      4      3      4     14     13
      4      4      5     15     14
      4      5      6     16     15
      4      6      7     17     16
      4      7      8     18     17
      4      8      9     19     18
      4     10     11     21     20
      4     11     12     22     21
      4     12     13     23     22
      4     13     14     24     23
      4     14     15     25     24
      4     15     16     26     25
      4     16     17     27     26
      4     17     18     28     27
      4     18     19     29     28
      4     20     21     31     30
      4     21     22     32     31
      4     22     23     33     32
      4     23     24     34     33
      4     24     25     35     34
      4     25     26     36     35
      4     26     27     37     36
      4     27     28     38     37
      4     28     29     39     38
      4     30     31     41     40
      4     31     32     42     41
      4     32     33     43     42
      4     33     34     44     43
      4     34     35     45     44
      4     35     36     46     45
      4     36     37     47     46
      4     37     38     48     47
      4     38     39     49     48
      4     40     41     51     50
      4     41     42     52     51
      4     42     43     53     52
      4     43     44     54     53
      4     44     45     55     54
      4     45     46     56     55
      4     46     47     57     56
      4     47     48     58     57
      4     48     49     59     58
      4     50     51     61     60
      4     51     52     62     61
      4     52     53     63     62
      4     53     54     64     63
      4     54     55     65     64
      4     55     56     66     65
      4     56     57     67     66
      4     57     58     68     67
      4     58     59     69     68
      4     60     61     71     70
      4     61     62     72     71
      4     62     63     73     72
      4     63     64     74     73
      4     64     65     75     74
      4     65     66     76     75
      4     66     67     77     76
      4     67     68     78     77
      4     68     69     79     78
      4     70     71     81     80
      4     71     72     82     81
      4     72     73     83     82
      4     73     74     84     83
      4     74     75     85     84
      4     75     76     86     85
      4     76     77     87     86
      4     77     78     88     87
      4     78     79     89     88
      4     80     81     91     90
      4     81     82     92     91
      4     82     83     93     92
      4     83     84     94     93
      4     84     85     95     94
      4     85     86     96     95
      4     86     87     97     96
      4     87     88     98     97
      4     88     89     99     98
      4     90     91    101    100
      4     91     92    102    101
      4     92     93    103    102
      4     93     94    104    103
      4     94     95    105    104
      4     95     96    106    105
      4     96     97    107    106
      4     97     98    108    107
      4     98     99    109    108
      4    100    101    111    110
      4    101    102    112    111
      4    102    103    113    112
      4    103    104    114    113
      4    104    105    115    114
      4    105    106    116    115
      4    106    107    117    116
      4    107    108    118    117
      4    108    109    119    118
      4    110    111    121    120
      4    111    112    122    121
      4    112    113    123    122
      4    113    114    124    123
      4    114    115    125    124
      4    115    116    126    125
      4    116    117    127    126
      4    117    118    128    127
      4    118    119    129    128
      4    120    121    131    130
      4    121    122    132    131
      4    122    123    133    132
      4    123    124    134    133
      4    124    125    135    134
      4    125    126    136    135
      4    126    127    137    136
      4    127    128    138    137
      4    128    129    139    138
  
CELL_DATA 117
SCALARS Gamma double
LOOKUP_TABLE default
  0.52815150E+002
  0.99432731E+002
  0.71986743E+002
  0.85862692E+002
  0.10129614E+003
  0.99094890E+002
  0.89541778E+002
  0.10454914E+003
  0.30038321E+002
  0.52815150E+002
  0.99432731E+002
  0.71986743E+002
  0.85862692E+002
  0.10129614E+003
  0.99094890E+002
  0.89541778E+002
  0.10454914E+003
  0.30038321E+002
  0.51647466E+002
  0.97738212E+002
  0.70404471E+002
  0.84394105E+002
  0.10013231E+003
  0.97654972E+002
  0.87943123E+002
  0.10280359E+003
  0.29406983E+002
  0.50133611E+002
  0.95802285E+002
  0.68396894E+002
  0.82775051E+002
  0.98966935E+002
  0.95623256E+002
  0.85937736E+002
  0.10113575E+003
  0.28760945E+002
  0.47126770E+002
  0.91081558E+002
  0.64599049E+002
  0.78726788E+002
  0.94621029E+002
  0.90646486E+002
  0.81452395E+002
  0.96570826E+002
  0.27272932E+002
  0.40307935E+002
  0.78883779E+002
  0.55757413E+002
  0.68182051E+002
  0.82010533E+002
  0.78109832E+002
  0.70331007E+002
  0.84043411E+002
  0.23558086E+002
  0.31180205E+002
  0.61861691E+002
  0.43729599E+002
  0.53402917E+002
  0.64079181E+002
  0.60762635E+002
  0.54966018E+002
  0.66251422E+002
  0.18425397E+002
  0.21751674E+002
  0.43748467E+002
  0.31092012E+002
  0.37702419E+002
  0.44954690E+002
  0.42522550E+002
  0.38757463E+002
  0.47116865E+002
  0.12995209E+002
  0.12940546E+002
  0.26383846E+002
  0.18957153E+002
  0.22682258E+002
  0.26751777E+002
  0.25299876E+002
  0.23305827E+002
  0.28582989E+002
  0.78166061E+001
  0.55517334E+001
  0.11524444E+002
  0.84253451E+001
  0.98669053E+001
  0.11443381E+002
  0.10857547E+002
  0.10153410E+002
  0.12534465E+002
  0.33987728E+001
  0.10796506E+001
  0.22864924E+001
  0.17123151E+001
  0.19508177E+001
  0.22107269E+001
  0.21117534E+001
  0.20087758E+001
  0.24850141E+001
  0.67029763E+000
  0.12168383E-001
  0.26361473E-001
  0.20268502E-001
  0.22122473E-001
  0.24323726E-001
  0.23479501E-001
  0.22930704E-001
  0.28397287E-001
  0.76470951E-002
  0.00000000E+000
  0.00000000E+000
  0.00000000E+000
  0.00000000E+000
  0.00000000E+000
  0.00000000E+000
  0.00000000E+000
  0.00000000E+000
  0.00000000E+000
POINT_DATA 140
VECTORS Uconv double
  0.00000000E+000  0.00000000E+000  0.00000000E+000
  0.00000000E+000  0.00000000E+000  0.00000000E+000
  0.00000000E+000  0.00000000E+000  0.00000000E+000
  0.00000000E+000  0.00000000E+000  0.00000000E+000
  0.00000000E+000  0.00000000E+000  0.00000000E+000
  0.00000000E+000  0.00000000E+000  0.00000000E+000
  0.00000000E+000  0.00000000E+000  0.00000000E+000
  0.00000000E+000  0.00000000E+000  0.00000000E+000
  0.00000000E+000  0.00000000E+000  0.00000000E+000
  0.00000000E+000  0.00000000E+000  0.00000000E+000
  0.00000000E+000  0.00000000E+000  0.00000000E+000
  0.00000000E+000  0.00000000E+000  0.00000000E+000
  0.00000000E+000  0.00000000E+000  0.00000000E+000
  0.00000000E+000  0.00000000E+000  0.00000000E+000
  0.00000000E+000  0.00000000E+000  0.00000000E+000
  0.00000000E+000  0.00000000E+000  0.00000000E+000
  0.00000000E+000  0.00000000E+000  0.00000000E+000
  0.00000000E+000  0.00000000E+000  0.00000000E+000
  0.00000000E+000  0.00000000E+000  0.00000000E+000
  0.00000000E+000  0.00000000E+000  0.00000000E+000
  0.17228831E+002 -0.20407434E+000 -0.77172099E-001
  0.16862994E+002  0.26672275E-001 -0.22915951E+001
  0.16757561E+002  0.47389982E+000 -0.68448565E+000
  0.16482437E+002  0.81936968E+000 -0.63607071E+000
  0.15870782E+002  0.14546742E+001 -0.34777201E+000
  0.15763583E+002  0.15518142E+001  0.42898889E+000
  0.16295820E+002  0.10010152E+001  0.81806104E+000
  0.16652865E+002  0.59689245E+000  0.82319855E+000
  0.16981032E+002  0.20075222E+000  0.25232425E+000
  0.16810849E+002  0.79608933E-001 -0.12851662E+001
  0.17227522E+002 -0.20213084E+000 -0.75440019E-001
  0.16978445E+002  0.86678591E-001 -0.12023532E+001
  0.16803083E+002  0.42585250E+000 -0.60592261E+000
  0.16527051E+002  0.76990763E+000 -0.58535769E+000
  0.15902905E+002  0.14262470E+001 -0.33178035E+000
  0.15800665E+002  0.15210195E+001  0.40931322E+000
  0.16352372E+002  0.94296428E+000  0.75617828E+000
  0.16706072E+002  0.54108333E+000  0.73524752E+000
  0.16987399E+002  0.19586212E+000  0.32670769E+000
  0.16801764E+002  0.10613341E+000 -0.12898127E+001
  0.17223766E+002 -0.19655885E+000 -0.70536809E-001
  0.16994578E+002  0.65787283E-001 -0.10757199E+001
  0.16853374E+002  0.37092076E+000 -0.52324562E+000
  0.16597315E+002  0.68878184E+000 -0.51001373E+000
  0.16002212E+002  0.13214870E+001 -0.29770584E+000
  0.15910437E+002  0.14085604E+001  0.36827459E+000
  0.16440855E+002  0.84684685E+000  0.66424691E+000
  0.16765053E+002  0.47722726E+000  0.63998138E+000
  0.17005669E+002  0.17712408E+000  0.30981183E+000
  0.16808811E+002  0.10097477E+000 -0.12998040E+001
  0.17222167E+002 -0.19449639E+000 -0.69360911E-001
  0.17008094E+002  0.43411116E-001 -0.93600107E+000
  0.16907752E+002  0.30970640E+000 -0.43274725E+000
  0.16691283E+002  0.57764329E+000 -0.41481651E+000
  0.16170023E+002  0.11363639E+001 -0.24589072E+000
  0.16093745E+002  0.12106464E+001  0.30629653E+000
  0.16560207E+002  0.71417804E+000  0.54456074E+000
  0.16829126E+002  0.40599104E+000  0.53543745E+000
  0.17026030E+002  0.15982098E+000  0.25641752E+000
  0.16815796E+002  0.96030879E-001 -0.13107761E+001
  0.17220341E+002 -0.19258361E+000 -0.68231552E-001
  0.17036143E+002  0.29048522E-001 -0.72617839E+000
  0.16964820E+002  0.24362264E+000 -0.33629975E+000
  0.16804749E+002  0.44058233E+000 -0.29912361E+000
  0.16396229E+002  0.88051471E+000 -0.17942650E+000
  0.16338862E+002  0.93823158E+000  0.22735060E+000
  0.16701446E+002  0.55157236E+000  0.40269688E+000
  0.16896590E+002  0.32911309E+000  0.42418674E+000
  0.17044757E+002  0.14033381E+000  0.22820976E+000
  0.16821369E+002  0.90883208E-001 -0.13227723E+001
  0.17218365E+002 -0.19051117E+000 -0.67020633E-001
  0.17058613E+002  0.15571087E-001 -0.58721572E+000
  0.17022997E+002  0.17424110E+000 -0.23672144E+000
  0.16930441E+002  0.28545849E+000 -0.16645775E+000
  0.16658649E+002  0.57664187E+000 -0.10469180E+000
  0.16621319E+002  0.61606718E+000  0.13828572E+000
  0.16856478E+002  0.36848803E+000  0.24332375E+000
  0.16965755E+002  0.24812572E+000  0.30863547E+000
  0.17063108E+002  0.12035810E+000  0.19911372E+000
  0.16827421E+002  0.84604003E-001 -0.13362818E+001
  0.17216245E+002 -0.18823145E+000 -0.65688909E-001
  0.17073886E+002 -0.77457828E-002 -0.38456491E+000
  0.17080588E+002  0.10328995E+000 -0.13637223E+000
  0.17056889E+002  0.12480859E+000 -0.37701386E-001
  0.16927076E+002  0.25557804E+000 -0.27672574E-001
  0.16908412E+002  0.27696823E+000  0.47536768E-001
  0.17011290E+002  0.17928495E+000  0.86163776E-001
  0.17033808E+002  0.16606248E+000  0.19303979E+000
  0.17083005E+002  0.10206150E+000  0.19726069E+000
  0.16833424E+002  0.78176255E-001 -0.13510007E+001
  0.17220766E+002 -0.20674099E+000 -0.21413590E+000
  0.17104471E+002 -0.28989713E-001 -0.26996290E+000
  0.17135938E+002  0.32515234E-001 -0.37797800E-001
  0.17175384E+002 -0.31004454E-001  0.85513537E-001
  0.17172016E+002 -0.49477188E-001  0.43978177E-001
  0.17168934E+002 -0.44262102E-001 -0.36596032E-001
  0.17155072E+002 -0.35642046E-002 -0.63512455E-001
  0.17097643E+002  0.86155734E-001  0.87314950E-001
  0.17099414E+002  0.81379997E-001  0.15928964E+000
  0.16874316E+002  0.65919315E-002 -0.13743614E+001
  0.17216465E+002 -0.19889260E+000 -0.17538116E+000
  0.17177364E+002 -0.99724383E-001  0.44237340E-002
  0.16987226E+002  0.19248219E+000 -0.32028235E+000
  0.17277687E+002 -0.17167952E+000  0.19534213E+000
  0.17157987E+002 -0.69841900E-001  0.10730731E+000
  0.17155607E+002 -0.69205317E-001 -0.10605578E+000
  0.17278177E+002 -0.16831772E+000 -0.19658751E+000
  0.16956309E+002  0.23636982E+000  0.34362278E+000
  0.17146448E+002  0.32451934E-001 -0.56943364E-001
  0.16866443E+002  0.12499100E-001 -0.86630936E+000
  0.17211245E+002 -0.18773072E+000 -0.14228707E+000
  0.17190331E+002 -0.10174754E+000  0.73739847E-001
  0.17044953E+002  0.11484376E+000 -0.21501132E+000
  0.17358347E+002 -0.28960983E+000  0.28619971E+000
  0.17340662E+002 -0.32130648E+000  0.15579161E+000
  0.17349568E+002 -0.33323031E+000 -0.16112399E+000
  0.17374523E+002 -0.30654723E+000 -0.30675161E+000
  0.17020711E+002  0.15046985E+000  0.23639757E+000
  0.17157476E+002  0.15464169E-001 -0.71632231E-001
  0.16866939E+002  0.12862228E-001 -0.85271164E+000
  0.17201802E+002 -0.16750169E+000 -0.18839405E+000
  0.16987768E+002  0.11774396E+000 -0.32333951E+000
  0.17095472E+002  0.43200600E-001 -0.12906071E+000
  0.17416492E+002 -0.38119347E+000  0.36284284E+000
  0.17460129E+002 -0.49791857E+000  0.18582582E+000
  0.17475708E+002 -0.51953445E+000 -0.19711118E+000
  0.17443201E+002 -0.41392724E+000 -0.39450969E+000
  0.17078899E+002  0.70049547E-001  0.12583635E+000
  0.17162260E+002 -0.48446963E-002 -0.11741727E+000
  0.16872667E+002  0.69663840E-002 -0.83893581E+000
  0.17200096E+002 -0.16754536E+000 -0.15685760E+000
  0.16962822E+002  0.76051331E-001  0.59887500E+000
  0.17140447E+002 -0.20647152E-001 -0.39688901E-001
  0.17452304E+002 -0.44399797E+000  0.40886311E+000
  0.17526179E+002 -0.60433871E+000  0.20694476E+000
  0.17545257E+002 -0.63180190E+000 -0.21773182E+000
  0.17485941E+002 -0.48889452E+000 -0.45249460E+000
  0.17129360E+002 -0.17993588E-002  0.27655277E-001
  0.16957204E+002  0.22455971E+000  0.24849032E+000
  0.16872715E+002  0.12222689E-001 -0.82056853E+000
