# vtk DataFile Version 2.0
BldPointCP.BldA
ASCII
 
DATASET POLYDATA
POINTS 9 double
 -0.11019921E+002 -0.26525206E+001  0.10647576E+003
 -0.27272696E+002 -0.65811311E+001  0.94817593E+002
 -0.40116602E+002 -0.97355966E+001  0.82545201E+002
 -0.48747979E+002 -0.11885675E+002  0.70228335E+002
 -0.51550746E+002 -0.12594767E+002  0.58236572E+002
 -0.48756981E+002 -0.11907555E+002  0.46246636E+002
 -0.40119692E+002 -0.97501088E+001  0.33927630E+002
 -0.27305848E+002 -0.65870713E+001  0.21617096E+002
 -0.11144515E+002 -0.26793432E+001  0.98264824E+001
  
POINT_DATA 9
SCALARS Gamma_LL double
LOOKUP_TABLE default
 -0.44965370E+001
 -0.16004960E+003
 -0.14306796E+003
 -0.11796503E+003
 -0.10884325E+003
 -0.10155356E+003
 -0.11448531E+003
 -0.14673183E+003
 -0.66962699E+002
VECTORS Vind_CP double
  0.10303521E+000 -0.26701878E+000  0.11694638E+000
 -0.51211342E+000  0.18074194E-001  0.50783212E+000
 -0.70755643E+000 -0.28309483E-001  0.49617233E+000
 -0.93668800E+000 -0.99407209E-001  0.28972985E+000
 -0.10122989E+001 -0.14079396E+000  0.13670873E-001
 -0.82947823E+000 -0.10166714E+000 -0.21488672E+000
 -0.58357971E+000 -0.34696929E-001 -0.38089404E+000
 -0.51814495E+000 -0.20143807E-001 -0.48938292E+000
 -0.18128085E+000 -0.75635030E-002 -0.69510666E-001
VECTORS Vtot_CP double
  0.10476552E+002  0.19684362E+002 -0.14942607E+001
  0.38219329E+001  0.50245372E+002 -0.31185731E+001
 -0.27478785E+001  0.74467117E+002 -0.31409963E+001
 -0.84646467E+001  0.90990983E+002 -0.24136523E+001
 -0.10423018E+002  0.96559275E+002 -0.23725090E+001
 -0.84072869E+001  0.91142049E+002 -0.23247172E+001
 -0.27754586E+001  0.74462409E+002 -0.15733767E+001
  0.43090641E+001  0.50184163E+002 -0.75582000E+000
  0.12134501E+002  0.20329307E+002 -0.77660024E-001
VECTORS Vstr_CP double
  0.68264831E+001 -0.19951380E+002  0.16112071E+001
  0.12865954E+002 -0.50227298E+002  0.36264052E+001
  0.19240322E+002 -0.74495427E+002  0.36371687E+001
  0.24727959E+002 -0.91090390E+002  0.27033821E+001
  0.26610719E+002 -0.96700069E+002  0.23861799E+001
  0.24777809E+002 -0.91243716E+002  0.21098305E+001
  0.19391879E+002 -0.74497105E+002  0.11924826E+001
  0.12372791E+002 -0.50204307E+002  0.26643708E+000
  0.48842179E+001 -0.20336871E+002  0.81493585E-002
VECTORS Vwnd_CP double
  0.17200000E+002  0.00000000E+000  0.00000000E+000
  0.17200000E+002  0.00000000E+000  0.00000000E+000
  0.17200000E+002  0.00000000E+000  0.00000000E+000
  0.17200000E+002  0.00000000E+000  0.00000000E+000
  0.17200000E+002  0.00000000E+000  0.00000000E+000
  0.17200000E+002  0.00000000E+000  0.00000000E+000
  0.17200000E+002  0.00000000E+000  0.00000000E+000
  0.17200000E+002  0.00000000E+000  0.00000000E+000
  0.17200000E+002  0.00000000E+000  0.00000000E+000
VECTORS Tangent double
 -0.85862372E+000  0.51254535E+000 -0.79103812E-002
 -0.23858694E+000  0.97112114E+000 -0.17562026E-004
 -0.23652942E+000  0.97162393E+000 -0.88327856E-003
 -0.22734842E+000  0.97381059E+000 -0.23717204E-002
 -0.22334917E+000  0.97473850E+000 -0.96588003E-004
 -0.22324262E+000  0.97476263E+000  0.73617315E-003
 -0.22544502E+000  0.97425572E+000  0.57898876E-003
 -0.22858155E+000  0.97352448E+000  0.75086778E-003
 -0.23078938E+000  0.97300359E+000  0.51799031E-003
VECTORS Normal double
 -0.33110530E+000 -0.54275996E+000  0.77186845E+000
 -0.62330434E+000 -0.15312076E+000  0.76684140E+000
 -0.69713516E+000 -0.16907527E+000  0.69671811E+000
 -0.87426361E+000 -0.20303397E+000  0.44095391E+000
 -0.97473793E+000 -0.22334893E+000  0.11047846E-002
 -0.87491704E+000 -0.20004265E+000 -0.44102506E+000
 -0.69879948E+000 -0.16128965E+000 -0.69689664E+000
 -0.62897129E+000 -0.14709238E+000 -0.76338650E+000
 -0.49797107E+000 -0.11765773E+000 -0.85917488E+000
VECTORS Orth double
 -0.39132414E+000 -0.66536373E+000 -0.63573306E+000
 -0.74469321E+000 -0.18296929E+000 -0.64183663E+000
 -0.67679864E+000 -0.16541009E+000 -0.71734448E+000
 -0.42892405E+000 -0.10232368E+000 -0.89752662E+000
 -0.10553033E-002 -0.34090073E-003 -0.99999939E+000
  0.42974749E+000  0.99099682E-001 -0.89749449E+000
  0.67886215E+000  0.15751647E+000 -0.71717134E+000
  0.74306500E+000  0.17496835E+000 -0.64594155E+000
  0.83591930E+000  0.19854639E+000 -0.51168179E+000
