# vtk DataFile Version 2.0

ASCII
 
DATASET POLYDATA
POINTS 110 double
  0.90957925E-001  0.18886225E-001  0.11318144E+003
  0.13041870E+002 -0.15905977E+002  0.10088204E+003
  0.22236362E+002 -0.27189780E+002  0.88716845E+002
  0.29953129E+002 -0.36604388E+002  0.76503247E+002
  0.33765090E+002 -0.41240717E+002  0.64222473E+002
  0.33758255E+002 -0.41213355E+002  0.51966391E+002
  0.29936021E+002 -0.36546248E+002  0.39702353E+002
  0.22227461E+002 -0.27145015E+002  0.27465601E+002
  0.13018753E+002 -0.15902040E+002  0.15262721E+002
  0.18933880E-003  0.51312655E-004  0.30001531E+001
 -0.14954299E+001 -0.41922117E+001  0.11317614E+003
  0.96425271E+001 -0.18718865E+002  0.10089098E+003
  0.19831075E+002 -0.29140464E+002  0.88721867E+002
  0.28044744E+002 -0.38149507E+002  0.76501929E+002
  0.32020815E+002 -0.42671113E+002  0.64221940E+002
  0.31982188E+002 -0.42674147E+002  0.51965744E+002
  0.27919253E+002 -0.38187639E+002  0.39701445E+002
  0.19573524E+002 -0.29310998E+002  0.27466430E+002
  0.95427461E+001 -0.18759902E+002  0.15262793E+002
 -0.34823082E+001 -0.28498334E+001  0.29809792E+001
 -0.13985283E+001 -0.41661017E+001  0.11317391E+003
  0.94727846E+001 -0.18890300E+002  0.10087257E+003
  0.19472725E+002 -0.29490257E+002  0.88718166E+002
  0.27521037E+002 -0.38643489E+002  0.76498256E+002
  0.31410982E+002 -0.43231370E+002  0.64219774E+002
  0.31371748E+002 -0.43233134E+002  0.51968350E+002
  0.27393904E+002 -0.38678281E+002  0.39706123E+002
  0.19211536E+002 -0.29655368E+002  0.27470978E+002
  0.93739267E+001 -0.18927503E+002  0.15265946E+002
 -0.33647107E+001 -0.27858250E+001  0.29722808E+001
 -0.13248221E+001 -0.41399046E+001  0.11317247E+003
  0.92888867E+001 -0.19050978E+002  0.10087721E+003
  0.19102584E+002 -0.29821683E+002  0.88713411E+002
  0.26979105E+002 -0.39112239E+002  0.76487421E+002
  0.30789170E+002 -0.43780313E+002  0.64218006E+002
  0.30750041E+002 -0.43789179E+002  0.51970638E+002
  0.26852698E+002 -0.39159239E+002  0.39713859E+002
  0.18838766E+002 -0.29990115E+002  0.27477707E+002
  0.92005065E+001 -0.19088920E+002  0.15265828E+002
 -0.32451756E+001 -0.27212191E+001  0.29726005E+001
 -0.12479468E+001 -0.41114942E+001  0.11317157E+003
  0.91087148E+001 -0.19202820E+002  0.10089578E+003
  0.18728606E+002 -0.30144928E+002  0.88709821E+002
  0.26431869E+002 -0.39571883E+002  0.76479024E+002
  0.30161773E+002 -0.44319836E+002  0.64217258E+002
  0.30123015E+002 -0.44334387E+002  0.51971215E+002
  0.26306417E+002 -0.39629041E+002  0.39718673E+002
  0.18461839E+002 -0.30316069E+002  0.27481897E+002
  0.90245019E+001 -0.19244437E+002  0.15264941E+002
 -0.31236421E+001 -0.26559451E+001  0.29737831E+001
 -0.11676109E+001 -0.40809367E+001  0.11317136E+003
  0.89239532E+001 -0.19351882E+002  0.10089972E+003
  0.18350508E+002 -0.30459822E+002  0.88707224E+002
  0.25878537E+002 -0.40021326E+002  0.76472559E+002
  0.29527607E+002 -0.44848003E+002  0.64216920E+002
  0.29489421E+002 -0.44866770E+002  0.51970890E+002
  0.25754097E+002 -0.40086413E+002  0.39721438E+002
  0.18080617E+002 -0.30632817E+002  0.27483890E+002
  0.88461898E+001 -0.19393842E+002  0.15262488E+002
 -0.30001214E+001 -0.25899896E+001  0.29757278E+001
 -0.10834010E+001 -0.40483824E+001  0.11317160E+003
  0.87412325E+001 -0.19493709E+002  0.10091268E+003
  0.17967961E+002 -0.30766052E+002  0.88705392E+002
  0.25319020E+002 -0.40460202E+002  0.76467987E+002
  0.28886204E+002 -0.45363572E+002  0.64216968E+002
  0.28848709E+002 -0.45385199E+002  0.51969732E+002
  0.25195527E+002 -0.40531005E+002  0.39722395E+002
  0.17694869E+002 -0.30939860E+002  0.27484247E+002
  0.86664627E+001 -0.19536528E+002  0.15256826E+002
 -0.28747141E+001 -0.25232377E+001  0.29780910E+001
 -0.99527762E+000 -0.40134003E+001  0.11317131E+003
  0.85556772E+001 -0.19631373E+002  0.10093464E+003
  0.17580511E+002 -0.31063197E+002  0.88704008E+002
  0.24752976E+002 -0.40887648E+002  0.76465007E+002
  0.28235653E+002 -0.45863187E+002  0.64217043E+002
  0.28198731E+002 -0.45886452E+002  0.51968276E+002
  0.24630156E+002 -0.40961996E+002  0.39722126E+002
  0.17304320E+002 -0.31236610E+002  0.27483590E+002
  0.84838343E+001 -0.19673598E+002  0.15251729E+002
 -0.27476729E+001 -0.24557871E+001  0.29805973E+001
 -0.90242864E+000 -0.39774775E+001  0.11317186E+003
  0.83711053E+001 -0.19762085E+002  0.10094496E+003
  0.17187743E+002 -0.31350677E+002  0.88702613E+002
  0.24180102E+002 -0.41302431E+002  0.76463133E+002
  0.27575255E+002 -0.46344927E+002  0.64216842E+002
  0.27538457E+002 -0.46368601E+002  0.51967047E+002
  0.24057391E+002 -0.41378076E+002  0.39721241E+002
  0.16908643E+002 -0.31522405E+002  0.27482605E+002
  0.82994584E+001 -0.19804477E+002  0.15246470E+002
 -0.26193269E+001 -0.23875164E+001  0.29828059E+001
 -0.80511963E+000 -0.39396162E+001  0.11317205E+003
  0.81857851E+001 -0.19886969E+002  0.10095210E+003
  0.16789122E+002 -0.31627727E+002  0.88699141E+002
  0.23601620E+002 -0.41705509E+002  0.76462671E+002
  0.26906369E+002 -0.46810145E+002  0.64216693E+002
  0.26869245E+002 -0.46833314E+002  0.51966193E+002
  0.23478193E+002 -0.41780477E+002  0.39719932E+002
  0.16507095E+002 -0.31796221E+002  0.27484425E+002
  0.81133273E+001 -0.19929108E+002  0.15242189E+002
 -0.24896909E+001 -0.23185266E+001  0.29841830E+001
 -0.70452013E+000 -0.38999408E+001  0.11317220E+003
  0.79996521E+001 -0.20005969E+002  0.10095279E+003
  0.16387828E+002 -0.31898326E+002  0.88697846E+002
  0.23018788E+002 -0.42098753E+002  0.76463577E+002
  0.26231237E+002 -0.47262411E+002  0.64216951E+002
  0.26193714E+002 -0.47284892E+002  0.51965553E+002
  0.22894264E+002 -0.42171989E+002  0.39718304E+002
  0.16102875E+002 -0.32062301E+002  0.27485136E+002
  0.79257099E+001 -0.20047417E+002  0.15240344E+002
 -0.23587397E+001 -0.22488148E+001  0.29848490E+001
  
POLYGONS 90 450
      4      0      1     11     10
      4      1      2     12     11
      4      2      3     13     12
      4      3      4     14     13
      4      4      5     15     14
      4      5      6     16     15
      4      6      7     17     16
      4      7      8     18     17
      4      8      9     19     18
      4     10     11     21     20
      4     11     12     22     21
      4     12     13     23     22
      4     13     14     24     23
      4     14     15     25     24
      4     15     16     26     25
      4     16     17     27     26
      4     17     18     28     27
      4     18     19     29     28
      4     20     21     31     30
      4     21     22     32     31
      4     22     23     33     32
      4     23     24     34     33
      4     24     25     35     34
      4     25     26     36     35
      4     26     27     37     36
      4     27     28     38     37
      4     28     29     39     38
      4     30     31     41     40
      4     31     32     42     41
      4     32     33     43     42
      4     33     34     44     43
      4     34     35     45     44
      4     35     36     46     45
      4     36     37     47     46
      4     37     38     48     47
      4     38     39     49     48
      4     40     41     51     50
      4     41     42     52     51
      4     42     43     53     52
      4     43     44     54     53
      4     44     45     55     54
      4     45     46     56     55
      4     46     47     57     56
      4     47     48     58     57
      4     48     49     59     58
      4     50     51     61     60
      4     51     52     62     61
      4     52     53     63     62
      4     53     54     64     63
      4     54     55     65     64
      4     55     56     66     65
      4     56     57     67     66
      4     57     58     68     67
      4     58     59     69     68
      4     60     61     71     70
      4     61     62     72     71
      4     62     63     73     72
      4     63     64     74     73
      4     64     65     75     74
      4     65     66     76     75
      4     66     67     77     76
      4     67     68     78     77
      4     68     69     79     78
      4     70     71     81     80
      4     71     72     82     81
      4     72     73     83     82
      4     73     74     84     83
      4     74     75     85     84
      4     75     76     86     85
      4     76     77     87     86
      4     77     78     88     87
      4     78     79     89     88
      4     80     81     91     90
      4     81     82     92     91
      4     82     83     93     92
      4     83     84     94     93
      4     84     85     95     94
      4     85     86     96     95
      4     86     87     97     96
      4     87     88     98     97
      4     88     89     99     98
      4     90     91    101    100
      4     91     92    102    101
      4     92     93    103    102
      4     93     94    104    103
      4     94     95    105    104
      4     95     96    106    105
      4     96     97    107    106
      4     97     98    108    107
      4     98     99    109    108
  
CELL_DATA 90
SCALARS Gamma double
LOOKUP_TABLE default
  0.46773599E+002
  0.91107376E+002
  0.64828892E+002
  0.78813402E+002
  0.94447445E+002
  0.90058697E+002
  0.81389024E+002
  0.96998912E+002
  0.27314709E+002
  0.46773599E+002
  0.91107376E+002
  0.64828892E+002
  0.78813402E+002
  0.94447445E+002
  0.90058697E+002
  0.81389024E+002
  0.96998912E+002
  0.27314709E+002
  0.40307935E+002
  0.78883779E+002
  0.55757413E+002
  0.68182051E+002
  0.82010533E+002
  0.78109832E+002
  0.70331007E+002
  0.84043411E+002
  0.23558086E+002
  0.31180205E+002
  0.61861691E+002
  0.43729599E+002
  0.53402917E+002
  0.64079181E+002
  0.60762635E+002
  0.54966018E+002
  0.66251422E+002
  0.18425397E+002
  0.21751674E+002
  0.43748467E+002
  0.31092012E+002
  0.37702419E+002
  0.44954690E+002
  0.42522550E+002
  0.38757463E+002
  0.47116865E+002
  0.12995209E+002
  0.12940546E+002
  0.26383846E+002
  0.18957153E+002
  0.22682258E+002
  0.26751777E+002
  0.25299876E+002
  0.23305827E+002
  0.28582989E+002
  0.78166061E+001
  0.55517334E+001
  0.11524444E+002
  0.84253451E+001
  0.98669053E+001
  0.11443381E+002
  0.10857547E+002
  0.10153410E+002
  0.12534465E+002
  0.33987728E+001
  0.10796506E+001
  0.22864924E+001
  0.17123151E+001
  0.19508177E+001
  0.22107269E+001
  0.21117534E+001
  0.20087758E+001
  0.24850141E+001
  0.67029763E+000
  0.12168383E-001
  0.26361473E-001
  0.20268502E-001
  0.22122473E-001
  0.24323726E-001
  0.23479501E-001
  0.22930704E-001
  0.28397287E-001
  0.76470951E-002
  0.00000000E+000
  0.00000000E+000
  0.00000000E+000
  0.00000000E+000
  0.00000000E+000
  0.00000000E+000
  0.00000000E+000
  0.00000000E+000
  0.00000000E+000
POINT_DATA 110
VECTORS Uconv double
  0.00000000E+000  0.00000000E+000  0.00000000E+000
  0.00000000E+000  0.00000000E+000  0.00000000E+000
  0.00000000E+000  0.00000000E+000  0.00000000E+000
  0.00000000E+000  0.00000000E+000  0.00000000E+000
  0.00000000E+000  0.00000000E+000  0.00000000E+000
  0.00000000E+000  0.00000000E+000  0.00000000E+000
  0.00000000E+000  0.00000000E+000  0.00000000E+000
  0.00000000E+000  0.00000000E+000  0.00000000E+000
  0.00000000E+000  0.00000000E+000  0.00000000E+000
  0.00000000E+000  0.00000000E+000  0.00000000E+000
  0.00000000E+000  0.00000000E+000  0.00000000E+000
  0.00000000E+000  0.00000000E+000  0.00000000E+000
  0.00000000E+000  0.00000000E+000  0.00000000E+000
  0.00000000E+000  0.00000000E+000  0.00000000E+000
  0.00000000E+000  0.00000000E+000  0.00000000E+000
  0.00000000E+000  0.00000000E+000  0.00000000E+000
  0.00000000E+000  0.00000000E+000  0.00000000E+000
  0.00000000E+000  0.00000000E+000  0.00000000E+000
  0.00000000E+000  0.00000000E+000  0.00000000E+000
  0.00000000E+000  0.00000000E+000  0.00000000E+000
  0.17216431E+002 -0.15038876E+000 -0.22242406E+000
  0.16896370E+002 -0.80214504E-001 -0.18415367E+001
  0.16971097E+002  0.26544409E+000 -0.37016917E+000
  0.16794690E+002  0.49371744E+000 -0.36733240E+000
  0.16390354E+002  0.95390883E+000 -0.21653485E+000
  0.16334430E+002  0.10116997E+001  0.26059270E+000
  0.16696930E+002  0.60128964E+000  0.46781015E+000
  0.16910146E+002  0.34115215E+000  0.45483791E+000
  0.17061008E+002  0.12275260E+000  0.31525729E+000
  0.16836054E+002  0.82690064E-001 -0.86984046E+000
  0.17215960E+002 -0.15134940E+000 -0.21993190E+000
  0.16789497E+002 -0.18412999E+000 -0.18343634E+001
  0.17014906E+002  0.21391996E+000 -0.29544709E+000
  0.16877412E+002  0.39296842E+000 -0.28111528E+000
  0.16550634E+002  0.76993957E+000 -0.16715864E+000
  0.16507041E+002  0.81706085E+000  0.20366320E+000
  0.16799001E+002  0.48216949E+000  0.36313577E+000
  0.16962283E+002  0.28038503E+000  0.36728791E+000
  0.17068288E+002  0.10219768E+000  0.30685718E+000
  0.16841097E+002  0.76998551E-001 -0.86643812E+000
  0.17214240E+002 -0.14923540E+000 -0.22132213E+000
  0.17103315E+002  0.16889519E-001 -0.52426990E+000
  0.17060426E+002  0.15868086E+000 -0.21658476E+000
  0.16974624E+002  0.27145132E+000 -0.18048108E+000
  0.16753457E+002  0.52973962E+000 -0.10674603E+000
  0.16724498E+002  0.56282230E+000  0.13320468E+000
  0.16918821E+002  0.33861400E+000  0.24068761E+000
  0.17016467E+002  0.21541609E+000  0.27503564E+000
  0.17070567E+002  0.77542801E-001  0.28450699E+000
  0.16846425E+002  0.70638544E-001 -0.86327614E+000
  0.17212394E+002 -0.14695592E+000 -0.22274280E+000
  0.17117386E+002 -0.10802566E-003 -0.41598087E+000
  0.17106315E+002  0.10112163E+000 -0.13563711E+000
  0.17078271E+002  0.13787101E+000 -0.72456964E-001
  0.16974526E+002  0.25836487E+000 -0.40928580E-001
  0.16960207E+002  0.27642536E+000  0.56531291E-001
  0.17044607E+002  0.18159240E+000  0.10981873E+000
  0.17071241E+002  0.14779907E+000  0.18022456E+000
  0.17113862E+002  0.80899719E-001  0.14820347E+000
  0.16851721E+002  0.64199113E-001 -0.85991703E+000
  0.17210417E+002 -0.14450431E+000 -0.22416089E+000
  0.17145076E+002 -0.26649546E-001 -0.23803886E+000
  0.17151186E+002  0.42741684E-001 -0.54766869E-001
  0.17179450E+002  0.31370286E-002  0.34738318E-001
  0.17186958E+002 -0.12756373E-001  0.23272489E-001
  0.17185542E+002 -0.88966666E-002 -0.18095862E-001
  0.17166286E+002  0.23812191E-001 -0.19480761E-001
  0.17124295E+002  0.79796814E-001  0.86393104E-001
  0.17127933E+002  0.64736991E-001  0.11751416E+000
  0.16857014E+002  0.57727790E-001 -0.85628326E+000
  0.17186301E+002 -0.84412164E-001 -0.29857111E+000
  0.16879662E+002 -0.23556756E+000  0.88330188E+000
  0.17193713E+002 -0.14978257E-001  0.23922626E-001
  0.17270278E+002 -0.12273335E+000  0.13820975E+000
  0.17366180E+002 -0.25415039E+000  0.79390911E-001
  0.17374758E+002 -0.26241905E+000 -0.83301620E-001
  0.17274028E+002 -0.12242883E+000 -0.13792843E+000
  0.17174237E+002  0.12992659E-001 -0.43346688E-002
  0.17112307E+002  0.28430037E-001  0.47650385E-002
  0.16862325E+002  0.51272061E-001 -0.85226850E+000
  0.17192250E+002 -0.10307069E+000 -0.27450380E+000
  0.17020476E+002 -0.15703576E+000  0.94382181E+000
  0.17232708E+002 -0.70663378E-001  0.98507462E-001
  0.17343565E+002 -0.22977385E+000  0.22091809E+000
  0.17496661E+002 -0.44348886E+000  0.12313465E+000
  0.17511941E+002 -0.46126650E+000 -0.13418536E+000
  0.17360842E+002 -0.24760205E+000 -0.23845619E+000
  0.17219644E+002 -0.50998946E-001 -0.89708863E-001
  0.17138986E+002  0.21960799E-001 -0.10370287E-001
  0.16867708E+002  0.44900597E-001 -0.84778402E+000
  0.17194759E+002 -0.11299865E+000 -0.26126728E+000
  0.17095582E+002 -0.13038501E+000  0.96050675E+000
  0.17111515E+002  0.76143784E-001 -0.13520581E+000
  0.17397549E+002 -0.31369854E+000  0.28793073E+000
  0.17574916E+002 -0.56989649E+000  0.15547338E+000
  0.17594024E+002 -0.59442770E+000 -0.16971268E+000
  0.17424196E+002 -0.34519331E+000 -0.31699982E+000
  0.17096674E+002  0.97422400E-001  0.14687618E+000
  0.17157467E+002  0.10655294E-001 -0.27322645E-001
  0.16875404E+002  0.34764047E-001 -0.84590629E+000
  0.17192950E+002 -0.11620889E+000 -0.25085515E+000
  0.17145500E+002 -0.12162310E+000  0.73970744E+000
  0.17146883E+002  0.24069494E-001 -0.75570935E-001
  0.17433066E+002 -0.37283675E+000  0.33301333E+000
  0.17607139E+002 -0.63669769E+000  0.17037592E+000
  0.17628058E+002 -0.66352687E+000 -0.18819151E+000
  0.17465069E+002 -0.41483189E+000 -0.37357830E+000
  0.17137079E+002  0.37527693E-001  0.74241688E-001
  0.17175901E+002 -0.81893741E-002 -0.12900878E+000
  0.16879902E+002  0.30980999E-001 -0.83902672E+000
