# vtk DataFile Version 2.0
BldPointCP.BldA
ASCII
 
DATASET POLYDATA
POINTS 9 double
 -0.11338228E+002 -0.14397686E+001  0.10638761E+003
 -0.27857766E+002 -0.35478183E+001  0.94632228E+002
 -0.41004016E+002 -0.52367232E+001  0.82377790E+002
 -0.49893340E+002 -0.63856578E+001  0.70108694E+002
 -0.52771517E+002 -0.67604996E+001  0.58125904E+002
 -0.49895814E+002 -0.63928943E+001  0.46143801E+002
 -0.41007159E+002 -0.52445276E+001  0.33872118E+002
 -0.27867565E+002 -0.35520965E+001  0.21611061E+002
 -0.11369891E+002 -0.14467619E+001  0.98266768E+001
  
POINT_DATA 9
SCALARS Gamma_LL double
LOOKUP_TABLE default
 -0.36473240E+001
 -0.10951581E+003
 -0.95748141E+002
 -0.91017145E+002
 -0.91766691E+002
 -0.87345358E+002
 -0.90783128E+002
 -0.10752161E+003
 -0.54393524E+002
VECTORS Vind_CP double
  0.40040221E-001 -0.12529758E+000  0.42111340E-001
 -0.24616471E+000  0.42126156E-003  0.25049837E+000
 -0.26490259E+000 -0.12007592E-001  0.18892286E+000
 -0.37791902E+000 -0.25193931E-001  0.12651407E+000
 -0.46999333E+000 -0.34322423E-001  0.12462523E-002
 -0.36138675E+000 -0.27506278E-001 -0.11661140E+000
 -0.24764304E+000 -0.14261927E-001 -0.17421209E+000
 -0.25612715E+000 -0.10743318E-001 -0.25154106E+000
 -0.99028489E-001 -0.84769706E-002 -0.43406965E-001
VECTORS Vtot_CP double
  0.13528884E+002  0.20318644E+002 -0.10563041E+001
  0.99671443E+001  0.50807978E+002 -0.19338284E+001
  0.63640964E+001  0.75179318E+002 -0.17039396E+001
  0.34869753E+001  0.91825316E+002 -0.12291692E+001
  0.25664638E+001  0.97346688E+002 -0.12666382E+001
  0.36000124E+001  0.91992429E+002 -0.12481737E+001
  0.66389690E+001  0.75361912E+002 -0.68334857E+000
  0.10416227E+002  0.50913101E+002 -0.23922148E+000
  0.14483320E+002  0.20647514E+002 -0.32063857E-001
VECTORS Vstr_CP double
  0.37111565E+001 -0.20443941E+002  0.10984155E+001
  0.69866910E+001 -0.50807557E+002  0.21843268E+001
  0.10571001E+002 -0.75191325E+002  0.18928624E+001
  0.13335106E+002 -0.91850510E+002  0.13556833E+001
  0.14163543E+002 -0.97381010E+002  0.12678844E+001
  0.13238601E+002 -0.92019935E+002  0.11315623E+001
  0.10313388E+002 -0.75376174E+002  0.50913648E+000
  0.65276462E+001 -0.50923845E+002 -0.12319575E-001
  0.26176520E+001 -0.20655991E+002 -0.11343108E-001
VECTORS Vwnd_CP double
  0.17200000E+002  0.00000000E+000  0.00000000E+000
  0.17200000E+002  0.00000000E+000  0.00000000E+000
  0.17200000E+002  0.00000000E+000  0.00000000E+000
  0.17200000E+002  0.00000000E+000  0.00000000E+000
  0.17200000E+002  0.00000000E+000  0.00000000E+000
  0.17200000E+002  0.00000000E+000  0.00000000E+000
  0.17200000E+002  0.00000000E+000  0.00000000E+000
  0.17200000E+002  0.00000000E+000  0.00000000E+000
  0.17200000E+002  0.00000000E+000  0.00000000E+000
VECTORS Tangent double
 -0.79737203E+000  0.60348558E+000 -0.17324352E-002
 -0.12934465E+000  0.99159935E+000  0.83323382E-003
 -0.12951190E+000  0.99157738E+000  0.98736256E-003
 -0.12670477E+000  0.99194047E+000  0.11904070E-003
 -0.12520815E+000  0.99213046E+000 -0.25647771E-003
 -0.12407440E+000  0.99227243E+000 -0.98755028E-003
 -0.12371675E+000  0.99231738E+000 -0.61555308E-003
 -0.12459549E+000  0.99220762E+000  0.74141835E-004
 -0.12545445E+000  0.99209938E+000  0.86284669E-004
VECTORS Normal double
 -0.39038422E+000 -0.51361253E+000  0.76406958E+000
 -0.63930998E+000 -0.84034143E-001  0.76434352E+000
 -0.70590738E+000 -0.92899172E-001  0.70218553E+000
 -0.88902570E+000 -0.11361226E+000  0.44353755E+000
 -0.99213047E+000 -0.12520809E+000  0.25264629E-003
 -0.88927255E+000 -0.11163666E+000 -0.44354436E+000
 -0.70669592E+000 -0.88542449E-001 -0.70195521E+000
 -0.64028700E+000 -0.80346321E-001 -0.76392214E+000
 -0.50767626E+000 -0.64122726E-001 -0.85915836E+000
VECTORS Orth double
 -0.46021518E+000 -0.60992403E+000 -0.64513152E+000
 -0.75799255E+000 -0.98331048E-001 -0.64480873E+000
 -0.69636301E+000 -0.90244396E-001 -0.71199333E+000
 -0.43997637E+000 -0.56092492E-001 -0.89625578E+000
 -0.21854499E-003 -0.28609273E-003 -0.99999994E+000
  0.44022708E+000  0.54154299E-001 -0.89625188E+000
  0.69661686E+000  0.86408606E-001 -0.71222083E+000
  0.75796341E+000  0.95228723E-001 -0.64530843E+000
  0.85236494E+000  0.10782905E+000 -0.51170978E+000
