# vtk DataFile Version 2.0
BldPointCP.BldA
ASCII
 
DATASET POLYDATA
POINTS 9 double
 -0.11298339E+002 -0.16438182E+001  0.10639966E+003
 -0.27784739E+002 -0.40552845E+001  0.94656372E+002
 -0.40892517E+002 -0.59884476E+001  0.82398366E+002
 -0.49750256E+002 -0.73043201E+001  0.70123139E+002
 -0.52619842E+002 -0.77345020E+001  0.58139565E+002
 -0.49754100E+002 -0.73138307E+001  0.46156674E+002
 -0.40896838E+002 -0.59979909E+001  0.33878472E+002
 -0.27797914E+002 -0.40603836E+001  0.21611006E+002
 -0.11341793E+002 -0.16533249E+001  0.98265422E+001
  
POINT_DATA 9
SCALARS Gamma_LL double
LOOKUP_TABLE default
 -0.44392556E+001
 -0.13752290E+003
 -0.12044171E+003
 -0.11179376E+003
 -0.11127233E+003
 -0.10615489E+003
 -0.11103735E+003
 -0.13329848E+003
 -0.66633991E+002
VECTORS Vind_CP double
  0.58553152E-001 -0.17146104E+000  0.68570705E-001
 -0.32017959E+000  0.15987215E-002  0.32726180E+000
 -0.36074963E+000 -0.17047761E-001  0.25728690E+000
 -0.50771040E+000 -0.38349456E-001  0.16801947E+000
 -0.61741779E+000 -0.52402303E-001  0.22406383E-002
 -0.48048096E+000 -0.41457430E-001 -0.15092944E+000
 -0.32832743E+000 -0.20079457E-001 -0.22825080E+000
 -0.33298059E+000 -0.15027288E-001 -0.32551476E+000
 -0.12910299E+000 -0.11126123E-001 -0.55136079E-001
VECTORS Vtot_CP double
  0.13004916E+002  0.20209869E+002 -0.11672425E+001
  0.89023835E+001  0.50764854E+002 -0.21825636E+001
  0.47745303E+001  0.75152286E+002 -0.19669015E+001
  0.14113398E+001  0.91837582E+002 -0.14271693E+001
  0.32363748E+000  0.97397656E+002 -0.14761286E+001
  0.15399395E+001  0.92017799E+002 -0.14614932E+001
  0.50481286E+001  0.75334175E+002 -0.84301730E+000
  0.93750434E+001  0.50860956E+002 -0.34600685E+000
  0.14074093E+002  0.20617147E+002 -0.46183596E-001
VECTORS Vstr_CP double
  0.42536376E+001 -0.20381330E+002  0.12358132E+001
  0.79774370E+001 -0.50763255E+002  0.25098254E+001
  0.12064720E+002 -0.75169333E+002  0.22241884E+001
  0.15280950E+002 -0.91875931E+002  0.15951888E+001
  0.16258945E+002 -0.97450058E+002  0.14783692E+001
  0.15179580E+002 -0.92059256E+002  0.13105637E+001
  0.11823544E+002 -0.75354255E+002  0.61476650E+000
  0.74919760E+001 -0.50875983E+002  0.20492091E-001
  0.29968040E+001 -0.20628273E+002 -0.89524833E-002
VECTORS Vwnd_CP double
  0.17200000E+002 -0.00000000E+000  0.00000000E+000
  0.17200000E+002 -0.00000000E+000  0.00000000E+000
  0.17200000E+002 -0.00000000E+000  0.00000000E+000
  0.17200000E+002 -0.00000000E+000  0.00000000E+000
  0.17200000E+002 -0.00000000E+000  0.00000000E+000
  0.17200000E+002 -0.00000000E+000  0.00000000E+000
  0.17200000E+002 -0.00000000E+000  0.00000000E+000
  0.17200000E+002 -0.00000000E+000  0.00000000E+000
  0.17200000E+002 -0.00000000E+000  0.00000000E+000
VECTORS Tangent double
 -0.80827529E+000  0.58879924E+000 -0.25528929E-002
 -0.14769759E+000  0.98903227E+000  0.77035050E-003
 -0.14762564E+000  0.98904296E+000  0.83377679E-003
 -0.14402612E+000  0.98957388E+000 -0.13081661E-003
 -0.14218723E+000  0.98983975E+000 -0.24768053E-003
 -0.14106939E+000  0.98999935E+000 -0.84705936E-003
 -0.14094844E+000  0.99001681E+000 -0.50760685E-003
 -0.14211658E+000  0.98984991E+000  0.15753802E-003
 -0.14317846E+000  0.98969688E+000  0.14030419E-003
VECTORS Normal double
 -0.38069804E+000 -0.51928658E+000  0.76512120E+000
 -0.63737119E+000 -0.95777649E-001  0.76458133E+000
 -0.70482232E+000 -0.10579389E+000  0.70145074E+000
 -0.88703106E+000 -0.12904307E+000  0.44331002E+000
 -0.98983973E+000 -0.14218714E+000  0.35851749E-003
 -0.88737921E+000 -0.12682584E+000 -0.44325313E+000
 -0.70575449E+000 -0.10083763E+000 -0.70124344E+000
 -0.63880392E+000 -0.91593971E-001 -0.76389796E+000
 -0.50644339E+000 -0.73144861E-001 -0.85916525E+000
VECTORS Orth double
 -0.44917710E+000 -0.61940044E+000 -0.64388123E+000
 -0.75626938E+000 -0.11243582E+000 -0.64452681E+000
 -0.69385313E+000 -0.10296445E+000 -0.71271745E+000
 -0.43867114E+000 -0.63964261E-001 -0.89636834E+000
 -0.31965787E-003 -0.29614064E-003 -0.99999991E+000
  0.43892774E+000  0.61777784E-001 -0.89639609E+000
  0.69429398E+000  0.98480924E-001 -0.71292172E+000
  0.75612990E+000  0.10866320E+000 -0.64533703E+000
  0.85030290E+000  0.12308501E+000 -0.51169821E+000
