# vtk DataFile Version 2.0
BldPointCP.BldC
ASCII
 
DATASET POLYDATA
POINTS 9 double
  0.69637716E+001 -0.91230386E+001  0.10633562E+003
  0.17015372E+002 -0.22393922E+002  0.94560787E+002
  0.25058497E+002 -0.32984808E+002  0.82348890E+002
  0.30495629E+002 -0.40128191E+002  0.70090957E+002
  0.32243971E+002 -0.42420283E+002  0.58094337E+002
  0.30489238E+002 -0.40108467E+002  0.46102027E+002
  0.25051964E+002 -0.32957832E+002  0.33843801E+002
  0.17008279E+002 -0.22378626E+002  0.21615489E+002
  0.69351683E+001 -0.91253543E+001  0.98364568E+001
  
POINT_DATA 9
SCALARS Gamma_LL double
LOOKUP_TABLE default
  0.30894460E+002
  0.61966644E+002
  0.44354113E+002
  0.53524511E+002
  0.63611875E+002
  0.60237823E+002
  0.55056205E+002
  0.66649016E+002
  0.18455828E+002
VECTORS Vind_CP double
 -0.70812460E-001 -0.87321398E-001 -0.16284091E+000
 -0.55209986E-001  0.69103157E-001 -0.12710087E+000
 -0.62630853E-001  0.63708512E-001 -0.59823713E-001
 -0.14244362E+000  0.14689229E+000 -0.61960423E-001
 -0.22160836E+000  0.24054947E+000  0.20397520E-002
 -0.16786925E+000  0.17738397E+000  0.82363007E-001
 -0.91421460E-001  0.99716389E-001  0.96398612E-001
 -0.89673210E-001  0.10272663E+000  0.14940299E+000
 -0.50954689E-001 -0.64315808E-001  0.44723571E-001
VECTORS Vtot_CP double
 -0.43474653E+000 -0.12799228E+002  0.41646553E+000
 -0.24030069E+002 -0.29890629E+002  0.19083938E+000
 -0.43370908E+002 -0.43583077E+002 -0.71502629E+000
 -0.56028139E+002 -0.54031860E+002 -0.56584748E+000
 -0.59880818E+002 -0.58075718E+002 -0.14839941E-001
 -0.55850253E+002 -0.54836839E+002  0.38930967E+000
 -0.43040003E+002 -0.44687883E+002  0.58423377E+000
 -0.23613230E+002 -0.30393283E+002  0.22063521E+000
  0.64408851E+000 -0.12612337E+002 -0.11054465E+000
VECTORS Vstr_CP double
  0.17563934E+002  0.12711907E+002 -0.57930645E+000
  0.41174859E+002  0.29959732E+002 -0.31794025E+000
  0.60508277E+002  0.43646786E+002  0.65520258E+000
  0.73085695E+002  0.54178752E+002  0.50388706E+000
  0.76859209E+002  0.58316268E+002  0.16879693E-001
  0.72882384E+002  0.55014223E+002 -0.30694666E+000
  0.60148582E+002  0.44787600E+002 -0.48783516E+000
  0.40723557E+002  0.30496010E+002 -0.71232215E-001
  0.16504957E+002  0.12548022E+002  0.15526822E+000
VECTORS Vwnd_CP double
  0.17200000E+002  0.00000000E+000  0.00000000E+000
  0.17200000E+002  0.00000000E+000  0.00000000E+000
  0.17200000E+002  0.00000000E+000  0.00000000E+000
  0.17200000E+002  0.00000000E+000  0.00000000E+000
  0.17200000E+002  0.00000000E+000  0.00000000E+000
  0.17200000E+002  0.00000000E+000  0.00000000E+000
  0.17200000E+002  0.00000000E+000  0.00000000E+000
  0.17200000E+002  0.00000000E+000  0.00000000E+000
  0.17200000E+002  0.00000000E+000  0.00000000E+000
VECTORS Tangent double
 -0.60911909E+000 -0.79307868E+000  0.38038772E-003
 -0.79582358E+000 -0.60552763E+000  0.10542447E-002
 -0.79774905E+000 -0.60298949E+000  0.35998023E-003
 -0.79671557E+000 -0.60435443E+000 -0.13868956E-003
 -0.79529681E+000 -0.60622022E+000 -0.17988276E-003
 -0.79619858E+000 -0.60503529E+000 -0.33781791E-003
 -0.79690810E+000 -0.60410055E+000 -0.89489380E-004
 -0.79590534E+000 -0.60542108E+000  0.54029259E-004
 -0.79575352E+000 -0.60561921E+000 -0.13091006E-002
VECTORS Normal double
  0.41806801E+000 -0.32068684E+000  0.84992887E+000
  0.38981595E+000 -0.51098750E+000  0.76611703E+000
  0.42778985E+000 -0.56554075E+000  0.70509539E+000
  0.54221062E+000 -0.71489321E+000  0.44151482E+000
  0.60622008E+000 -0.79529633E+000 -0.98309236E-003
  0.54263557E+000 -0.71383625E+000 -0.44270131E+000
  0.42869095E+000 -0.56540957E+000 -0.70465317E+000
  0.38971095E+000 -0.51239440E+000 -0.76523026E+000
  0.31112790E+000 -0.40695015E+000 -0.85883119E+000
VECTORS Orth double
  0.67393848E+000 -0.51786693E+000 -0.52689730E+000
  0.46336633E+000 -0.61010496E+000 -0.64270023E+000
  0.42496152E+000 -0.56264318E+000 -0.70911237E+000
  0.26693059E+000 -0.35168653E+000 -0.89725395E+000
 -0.45291037E-003  0.89089875E-003 -0.99999950E+000
 -0.26760877E+000  0.35266147E+000 -0.89666908E+000
 -0.42563076E+000  0.56158218E+000 -0.70955191E+000
 -0.46331422E+000  0.60902979E+000 -0.64375667E+000
 -0.51959192E+000  0.68382524E+000 -0.51225704E+000
