# vtk DataFile Version 2.0

ASCII
 
DATASET POLYDATA
POINTS 2 double
  0.00000000E+000  0.00000000E+000  0.00000000E+000
  0.00000000E+000  0.00000000E+000  0.00000000E+000
  
POLYGONS 0 0
  
CELL_DATA 0
SCALARS Gamma double
LOOKUP_TABLE default

POINT_DATA 2
VECTORS Uconv double
 -0.14998732E+000 -0.60662685E+000 -0.17089550E+000
 -0.14998732E+000 -0.60662685E+000 -0.17089550E+000
