# vtk DataFile Version 2.0
Sgmt
ASCII
 
DATASET POLYDATA
POINTS 1080 double
  0.11376793E+000  0.24146920E-001  0.11318135E+003
 -0.20177334E+002 -0.36947219E+001  0.10107114E+003
 -0.34458726E+002 -0.63348060E+001  0.88854933E+002
 -0.46307739E+002 -0.85560628E+001  0.76545984E+002
 -0.52251002E+002 -0.96783037E+001  0.64294175E+002
 -0.52257132E+002 -0.96871942E+001  0.52051651E+002
 -0.46314953E+002 -0.85766133E+001  0.39801460E+002
 -0.34462658E+002 -0.63387573E+001  0.27484274E+002
 -0.20215877E+002 -0.37035004E+001  0.15240213E+002
  0.18995792E-003  0.51908772E-004  0.30001624E+001
 -0.43124536E+001 -0.78687080E+000  0.11315284E+003
 -0.20984402E+002  0.64308829E+000  0.10107128E+003
 -0.35034990E+002 -0.32920270E+001  0.88858737E+002
 -0.46750239E+002 -0.61407952E+001  0.76543870E+002
 -0.52646957E+002 -0.74575513E+001  0.64292288E+002
 -0.52660010E+002 -0.74231240E+001  0.52052613E+002
 -0.46767002E+002 -0.60159177E+001  0.39798736E+002
 -0.35065631E+002 -0.29666239E+001  0.27486040E+002
 -0.21015252E+002  0.72493010E+000  0.15241362E+002
 -0.80635339E+000  0.44271826E+001  0.30014818E+001
 -0.41546416E+001 -0.71184806E+000  0.11314794E+003
 -0.20802594E+002  0.10224486E+001  0.10109104E+003
 -0.34927748E+002 -0.26588523E+001  0.88869342E+002
 -0.46694597E+002 -0.52970903E+001  0.76551722E+002
 -0.52620990E+002 -0.65074499E+001  0.64295465E+002
 -0.52635185E+002 -0.64726745E+001  0.52048848E+002
 -0.46711148E+002 -0.51718201E+001  0.39790173E+002
 -0.34951620E+002 -0.23332996E+001  0.27476107E+002
 -0.20833058E+002  0.11051273E+001  0.15236524E+002
 -0.55712680E+000  0.44397738E+001  0.30059931E+001
 -0.40188695E+001 -0.63842555E+000  0.11314942E+003
 -0.20619490E+002  0.14044743E+001  0.10107951E+003
 -0.34805857E+002 -0.20125050E+001  0.88843060E+002
 -0.46644481E+002 -0.44283401E+001  0.76539314E+002
 -0.52605122E+002 -0.55246190E+001  0.64281347E+002
 -0.52616979E+002 -0.54878195E+001  0.52027728E+002
 -0.46658216E+002 -0.43001308E+001  0.39767889E+002
 -0.34827895E+002 -0.16877235E+001  0.27467191E+002
 -0.20643525E+002  0.14884161E+001  0.15233408E+002
 -0.30774741E+000  0.44507445E+001  0.30084551E+001
 -0.38796479E+001 -0.56303346E+000  0.11315062E+003
 -0.20426226E+002  0.17846799E+001  0.10106299E+003
 -0.34667793E+002 -0.13678072E+001  0.88815806E+002
 -0.46569654E+002 -0.35604247E+001  0.76525236E+002
 -0.52558278E+002 -0.45425855E+001  0.64267076E+002
 -0.52568094E+002 -0.45039126E+001  0.52010476E+002
 -0.46580155E+002 -0.34292332E+001  0.39751398E+002
 -0.34687273E+002 -0.10432570E+001  0.27463354E+002
 -0.20448908E+002  0.18695871E+001  0.15227201E+002
 -0.57860538E-001  0.44603124E+001  0.30108199E+001
 -0.37365863E+001 -0.48649627E+000  0.11315234E+003
 -0.20235976E+002  0.21629853E+001  0.10105735E+003
 -0.34514352E+002 -0.72491703E+000  0.88788748E+002
 -0.46470835E+002 -0.26940211E+001  0.76509720E+002
 -0.52480361E+002 -0.35624547E+001  0.64253317E+002
 -0.52488222E+002 -0.35221141E+001  0.51996836E+002
 -0.46478224E+002 -0.25599155E+001  0.39740291E+002
 -0.34530908E+002 -0.40005981E+000  0.27463509E+002
 -0.20248476E+002  0.22494464E+001  0.15218996E+002
  0.19263956E+000  0.44686081E+001  0.30129382E+001
 -0.35894402E+001 -0.40883300E+000  0.11315450E+003
 -0.20024063E+002  0.25409749E+001  0.10103094E+003
 -0.34345788E+002 -0.84154138E-001  0.88762354E+002
 -0.46347525E+002 -0.18299788E+001  0.76492739E+002
 -0.52370890E+002 -0.25855143E+001  0.64239806E+002
 -0.52376904E+002 -0.25437590E+001  0.51987365E+002
 -0.46352244E+002 -0.16931287E+001  0.39734702E+002
 -0.34359248E+002  0.24139359E+000  0.27467316E+002
 -0.20032106E+002  0.26283338E+001  0.15221439E+002
  0.44380863E+000  0.44757294E+001  0.30146320E+001
 -0.34379585E+001 -0.33012410E+000  0.11315692E+003
 -0.19803843E+002  0.29174483E+001  0.10100509E+003
 -0.34163309E+002  0.55449722E+000  0.88738126E+002
 -0.46201747E+002 -0.96871725E+000  0.76475717E+002
 -0.52232514E+002 -0.16125370E+001  0.64227195E+002
 -0.52236646E+002 -0.15696736E+001  0.51981728E+002
 -0.46204243E+002 -0.82939400E+000  0.39733672E+002
 -0.34173466E+002  0.88088277E+000  0.27473640E+002
 -0.19807883E+002  0.30055681E+001  0.15223491E+002
  0.69594602E+000  0.44819268E+001  0.30152869E+001
 -0.32819467E+001 -0.25051693E+000  0.11315913E+003
 -0.19574752E+002  0.32922166E+001  0.10098236E+003
 -0.33967760E+002  0.11909606E+001  0.88717223E+002
 -0.46040607E+002 -0.11031364E+000  0.76462437E+002
 -0.52071882E+002 -0.64335899E+000  0.64216413E+002
 -0.52074187E+002 -0.59977759E+000  0.51979232E+002
 -0.46040904E+002  0.31074982E-001  0.39733861E+002
 -0.33974844E+002  0.15182403E+001  0.27480987E+002
 -0.19576334E+002  0.33810915E+001  0.15225859E+002
  0.94830075E+000  0.44867088E+001  0.30162530E+001
 -0.31211305E+001 -0.17026329E+000  0.11316044E+003
 -0.19337677E+002  0.36656002E+001  0.10096385E+003
 -0.33759399E+002  0.18250767E+001  0.88700454E+002
 -0.45856034E+002  0.74477442E+000  0.76449649E+002
 -0.51902253E+002  0.32247646E+000  0.64211079E+002
 -0.51902481E+002  0.36626551E+000  0.51976670E+002
 -0.45855920E+002  0.88792509E+000  0.39738377E+002
 -0.33764708E+002  0.21532895E+001  0.27488648E+002
 -0.19337630E+002  0.37543040E+001  0.15228925E+002
  0.12008480E+001  0.44900576E+001  0.30172976E+001
 -0.29552029E+001 -0.89549406E-001  0.11316069E+003
 -0.19093749E+002  0.40369593E+001  0.10093989E+003
 -0.33542754E+002  0.24571634E+001  0.88691682E+002
 -0.45655043E+002  0.15964416E+001  0.76440538E+002
 -0.51705879E+002  0.12842773E+001  0.64206144E+002
 -0.51704976E+002  0.13279771E+001  0.51978450E+002
 -0.45654853E+002  0.17408024E+001  0.39743959E+002
 -0.33560205E+002  0.27875446E+001  0.27477004E+002
 -0.19092464E+002  0.41262477E+001  0.15235369E+002
  0.14533857E+001  0.44921017E+001  0.30180303E+001
 -0.27850989E+001 -0.86031871E-002  0.11316032E+003
 -0.18843468E+002  0.44073971E+001  0.10092501E+003
 -0.33327338E+002  0.30891483E+001  0.88699388E+002
 -0.45440003E+002  0.24456783E+001  0.76434958E+002
 -0.51495718E+002  0.22432627E+001  0.64203924E+002
 -0.51493696E+002  0.22868031E+001  0.51980171E+002
 -0.45438170E+002  0.25903939E+001  0.39748854E+002
 -0.33331352E+002  0.34185963E+001  0.27477893E+002
 -0.18840196E+002  0.44961155E+001  0.15241339E+002
  0.17058195E+001  0.44926829E+001  0.30190450E+001
  0.11376793E+000  0.24146920E-001  0.11318135E+003
  0.69443446E+001  0.19368118E+002  0.10086050E+003
  0.11822880E+002  0.33101617E+002  0.88723341E+002
  0.15922273E+002  0.44565108E+002  0.76514429E+002
  0.17931526E+002  0.50188457E+002  0.64217275E+002
  0.17922598E+002  0.50152918E+002  0.51960026E+002
  0.15903099E+002  0.44493483E+002  0.39683786E+002
  0.11814276E+002  0.33056411E+002  0.27440545E+002
  0.69186056E+001  0.19352596E+002  0.15261969E+002
  0.18995792E-003  0.51908772E-004  0.30001624E+001
  0.30240499E+001 -0.34080840E+001  0.11318842E+003
  0.11082621E+002  0.17837560E+002  0.10085615E+003
  0.14741965E+002  0.32067434E+002  0.88721294E+002
  0.18240415E+002  0.43755450E+002  0.76514778E+002
  0.20055096E+002  0.49427552E+002  0.64217415E+002
  0.20084689E+002  0.49369535E+002  0.51959772E+002
  0.18354756E+002  0.43626942E+002  0.39683190E+002
  0.15042033E+002  0.31909045E+002  0.27440768E+002
  0.11152753E+002  0.17828786E+002  0.15262432E+002
  0.42374068E+001 -0.15150445E+001  0.30219820E+001
  0.31336614E+001 -0.34611167E+001  0.11318423E+003
  0.11572983E+002  0.17632240E+002  0.10084221E+003
  0.15487930E+002  0.31794212E+002  0.88718286E+002
  0.19195862E+002  0.43416068E+002  0.76512693E+002
  0.21110422E+002  0.49049228E+002  0.64216054E+002
  0.21138563E+002  0.48989556E+002  0.51961771E+002
  0.19307363E+002  0.43283939E+002  0.39686325E+002
  0.15784821E+002  0.31629741E+002  0.27444316E+002
  0.11642631E+002  0.17622281E+002  0.15266221E+002
  0.43801135E+001 -0.15907663E+001  0.30283688E+001
  0.32202022E+001 -0.35149521E+001  0.11317905E+003
  0.12056028E+002  0.17428173E+002  0.10084858E+003
  0.16225130E+002  0.31496196E+002  0.88715878E+002
  0.20140355E+002  0.43038655E+002  0.76501904E+002
  0.22163456E+002  0.48653064E+002  0.64214953E+002
  0.22192102E+002  0.48601654E+002  0.51965257E+002
  0.20253175E+002  0.42920971E+002  0.39695927E+002
  0.16520622E+002  0.31333239E+002  0.27454469E+002
  0.12129656E+002  0.17411752E+002  0.15268003E+002
  0.45216738E+001 -0.16659138E+001  0.30316142E+001
  0.33078877E+001 -0.35672573E+001  0.11317495E+003
  0.12537134E+002  0.17219012E+002  0.10085921E+003
  0.16957197E+002  0.31188379E+002  0.88713491E+002
  0.21077546E+002  0.42649482E+002  0.76491594E+002
  0.23209770E+002  0.48245067E+002  0.64214302E+002
  0.23239640E+002  0.48201402E+002  0.51967760E+002
  0.21192891E+002  0.42545663E+002  0.39704056E+002
  0.17251433E+002  0.31027545E+002  0.27463012E+002
  0.12613463E+002  0.17196637E+002  0.15268267E+002
  0.46622162E+001 -0.17404629E+001  0.30297212E+001
  0.33968788E+001 -0.36180933E+001  0.11317198E+003
  0.13015995E+002  0.17004640E+002  0.10087387E+003
  0.17684081E+002  0.30871465E+002  0.88711511E+002
  0.22008085E+002  0.42250542E+002  0.76482993E+002
  0.24249864E+002  0.47826880E+002  0.64214684E+002
  0.24281212E+002  0.47789549E+002  0.51969049E+002
  0.22126268E+002  0.42158260E+002  0.39710531E+002
  0.17977079E+002  0.30712698E+002  0.27469825E+002
  0.13093966E+002  0.16976951E+002  0.15266688E+002
  0.48016938E+001 -0.18144964E+001  0.30272957E+001
  0.34873164E+001 -0.36675017E+001  0.11317027E+003
  0.13492301E+002  0.16784793E+002  0.10089108E+003
  0.18405244E+002  0.30545052E+002  0.88709001E+002
  0.22930993E+002  0.41839972E+002  0.76474693E+002
  0.25282626E+002  0.47396172E+002  0.64215120E+002
  0.25316255E+002  0.47365371E+002  0.51969141E+002
  0.23053077E+002  0.41759089E+002  0.39714892E+002
  0.18697496E+002  0.30389080E+002  0.27474561E+002
  0.13571003E+002  0.16752550E+002  0.15263271E+002
  0.49400884E+001 -0.18880192E+001  0.30244994E+001
[...]
CELL_DATA 1962
SCALARS Gamma double
LOOKUP_TABLE default
 -0.49032102E+001
  0.49032102E+001
 -0.16087013E+003
  0.15596692E+003
 -0.14198116E+003
 -0.18888972E+002
 -0.12539492E+003
 -0.16586236E+002
 -0.12190390E+003
 -0.34910280E+001
 -0.11647919E+003
 -0.54247053E+001
 -0.12383190E+003
  0.73527105E+001
 -0.15249490E+003
  0.28663003E+002
 -0.73512652E+002
 -0.78982253E+002
 -0.73512652E+002
  0.00000000E+000
  0.49032102E+001
  0.00000000E+000
  0.15596692E+003
  0.00000000E+000
 -0.18888972E+002
  0.00000000E+000
 -0.16586236E+002
  0.00000000E+000
 -0.34910280E+001
  0.00000000E+000
 -0.54247053E+001
  0.00000000E+000
  0.73527105E+001
  0.00000000E+000
  0.28663003E+002
  0.00000000E+000
 -0.78982253E+002
 -0.73512652E+002
 -0.23144359E+000
  0.51346537E+001
  0.42108447E+001
  0.15152463E+003
  0.35130114E+001
 -0.18191138E+002
  0.27629730E+001
 -0.15836197E+002
  0.26971595E+001
 -0.34252144E+001
  0.25703919E+001
 -0.52979378E+001
  0.28845911E+001
  0.70385114E+001
  0.37892465E+001
  0.27758347E+002
 -0.14148283E+000
 -0.75051524E+002
 -0.73654135E+002
  0.47592712E+000
  0.46587266E+001
  0.18303795E+002
  0.13369677E+003
  0.16748446E+002
 -0.16635789E+002
  0.12128025E+002
 -0.11215776E+002
  0.10640676E+002
 -0.19378658E+001
  0.10099609E+002
 -0.47568714E+001
  0.11731022E+002
  0.54070988E+001
  0.15972660E+002
  0.23516710E+002
  0.67350539E+001
 -0.65813918E+002
 -0.66919081E+002
  0.83211125E+000
  0.38266154E+001
  0.27867914E+002
  0.10666096E+003
  0.24918373E+002
 -0.13686248E+002
  0.20471167E+002
 -0.67685699E+001
  0.18877183E+002
 -0.34388132E+000
  0.18315604E+002
 -0.41952929E+001
  0.19841319E+002
  0.38813838E+001
  0.25575396E+002
  0.17782634E+002
  0.12482756E+002
 -0.52721278E+002
 -0.54436325E+002
  0.99235881E+000
  0.28342566E+001
  0.31099255E+002
  0.76554066E+002
  0.27415886E+002
 -0.10002878E+002
  0.23975277E+002
 -0.33279609E+001
  0.23038709E+002
  0.59268608E+000
  0.22064967E+002
 -0.32215504E+001
  0.23517145E+002
  0.24292057E+001
  0.29201645E+002
  0.12098133E+002
  0.14721714E+002
 -0.38241348E+002
 -0.39714610E+002
  0.10427003E+001
  0.17915563E+001
  0.30769127E+002
  0.46827639E+002
  0.26983230E+002
 -0.62169816E+001
  0.24776825E+002
 -0.11215561E+001
  0.24504431E+002
  0.86508056E+000
  0.23208485E+002
 -0.19256050E+001
  0.24544431E+002
  0.10932602E+001
  0.29638113E+002
  0.70044515E+001
  0.14999923E+002
 -0.23603158E+002
 -0.24714688E+002
  0.97299534E+000
  0.81856091E+000
  0.27077488E+002
  0.20723147E+002
  0.23657597E+002
 -0.27970910E+001
  0.22649332E+002
 -0.11329133E+000
  0.22929610E+002
  0.58480337E+000
  0.21802107E+002
 -0.79810264E+000
  0.22590109E+002
  0.30525857E+000
  0.26662817E+002
  0.29317436E+001
  0.13579584E+002
 -0.10519925E+002
 -0.11135103E+002
  0.64872544E+000
  0.16983547E+000
  0.17225887E+002
  0.41459856E+001
  0.14985761E+002
 -0.55696483E+000
  0.14823631E+002
  0.48838483E-001
  0.15253043E+002
  0.15539132E+000
  0.14596251E+002
 -0.14131106E+000
  0.14877618E+002
  0.23892066E-001
  0.17257262E+002
  0.55209979E+000
  0.88586096E+001
 -0.21212729E+001
 -0.22764939E+001
  0.16779964E+000
  0.20358333E-002
  0.42656912E+001
  0.48093971E-001
  0.37150864E+001
 -0.63599538E-002
  0.37625785E+001
  0.13463489E-002
  0.39157448E+001
  0.22250323E-002
  0.37758405E+001
 -0.14067937E-002
  0.37998844E+001
 -0.15175484E-003
  0.43459621E+001
  0.60219938E-002
  0.22494345E+001
 -0.24745317E-001
 -0.27059359E-001
  0.20358333E-002
  0.00000000E+000
  0.00000000E+000
  0.50129804E-001
 -0.00000000E+000
  0.00000000E+000
  0.43769850E-001
 -0.00000000E+000
  0.00000000E+000
  0.45116199E-001
 -0.00000000E+000
  0.00000000E+000
  0.47341231E-001
 -0.00000000E+000
  0.00000000E+000
  0.45934438E-001
 -0.00000000E+000
  0.00000000E+000
  0.45782683E-001
 -0.00000000E+000
  0.00000000E+000
  0.51804677E-001
 -0.00000000E+000
  0.00000000E+000
  0.27059359E-001
 -0.00000000E+000
  0.00000000E+000
 -0.00000000E+000
  0.11584946E+003
 -0.11584946E+003
  0.53889910E+002
  0.61959545E+002
  0.22034558E+002
  0.31855352E+002
  0.34943631E+002
 -0.12909073E+002
  0.56351422E+002
 -0.21407791E+002
  0.48276938E+002
  0.80744835E+001
  0.34641044E+002
  0.13635894E+002
  0.49032144E+002
 -0.14391100E+002
  0.56108493E+002
 -0.70763491E+001
  0.56108493E+002
  0.00000000E+000
 -0.11584946E+003
  0.00000000E+000
  0.61959545E+002
  0.00000000E+000
  0.31855352E+002
  0.00000000E+000
 -0.12909073E+002
  0.00000000E+000
 -0.21407791E+002
  0.00000000E+000
  0.80744835E+001
  0.00000000E+000
  0.13635894E+002
  0.00000000E+000
 -0.14391100E+002
  0.00000000E+000
 -0.70763491E+001
  0.56108493E+002
 -0.32415440E+001
 -0.11260791E+003
  0.12290619E+001
  0.57488939E+002
  0.16755610E+001
  0.31408853E+002
  0.16311495E+001
 -0.12864662E+002
  0.12759572E+001
 -0.21052598E+002
  0.13961482E+001
  0.79542925E+001
  0.16082299E+001
  0.13423813E+002
  0.16026114E+001
 -0.14385482E+002
  0.99419378E+000
 -0.64679314E+001
  0.57102687E+002
 -0.12602314E+002
 -0.10000560E+003
 -0.52290479E+001
  0.50115674E+002
 -0.75883078E+000
  0.26938636E+002
 -0.15209807E+001
 -0.12102512E+002
 -0.48403114E+001
 -0.17733268E+002
 -0.39698689E+001
  0.70838501E+001
 -0.20334040E+001
  0.11487348E+002
 -0.30433522E+001
 -0.13375534E+002
 -0.43170140E+001
 -0.51942696E+001
  0.52785673E+002
 -0.19765346E+002
 -0.80240252E+002
 -0.88862138E+001
  0.39236541E+002
 -0.26267096E+001
  0.20679132E+002
 -0.48235155E+001
 -0.99057057E+001
 -0.93638934E+001
 -0.13192890E+002
 -0.78432373E+001
  0.55631940E+001
 -0.49671768E+001
  0.86112870E+001
 -0.71011572E+001
 -0.11241553E+002
 -0.86556926E+001
 -0.36397342E+001
  0.44129981E+002
 -0.22240400E+002
 -0.57999852E+002
 -0.10510455E+002
  0.27506596E+002
 -0.39498849E+001
  0.14118562E+002
 -0.68456066E+001
 -0.70099840E+001
 -0.11448451E+002
 -0.85900453E+001
 -0.96926403E+001
  0.38073832E+001
 -0.66721349E+001
  0.55907816E+001
 -0.94491412E+001
 -0.84645468E+001
 -0.10904937E+002
 -0.21839384E+001
  0.33225043E+002
 -0.22238158E+002
 -0.35761694E+002
 -0.11071798E+002
  0.16340236E+002
 -0.50772428E+001
  0.81240071E+001
 -0.80530541E+001
 -0.40341727E+001
 -0.12045193E+002
 -0.45979064E+001
 -0.10367287E+002
  0.21294770E+001
 -0.77188607E+001
  0.29423555E+001
 -0.10764720E+002
 -0.54186876E+001
 -0.11897044E+002
 -0.10516144E+001
  0.21328000E+002
 -0.19801747E+002
 -0.15959946E+002
 -0.10431548E+002
  0.69700364E+001
 -0.56400549E+001
  0.33325139E+001
 -0.81041948E+001
 -0.15700328E+001
 -0.11011162E+002
 -0.16909396E+001
 -0.96864267E+001
  0.80474206E+000
 -0.77734533E+001
  0.10293821E+001
 -0.10713530E+002
 -0.24786105E+001
 -0.11444404E+002
 -0.32074043E+000
  0.98835952E+001
 -0.12734296E+002
 -0.32256505E+001
 -0.70919756E+001
  0.13277161E+001
 -0.43707978E+001
  0.61133605E+000
 -0.56838027E+001
 -0.25702784E+000
 -0.71110926E+001
 -0.26364967E+000
 -0.64318326E+001
  0.12548201E+000
 -0.55503317E+001
  0.14788120E+000
 -0.75239556E+001
 -0.50498659E+000
 -0.78048641E+001
 -0.39831881E-001
  0.20787311E+001
 -0.31878192E+001
 -0.37831218E-001
 -0.18745597E+001
  0.14456477E-001
 -0.12697514E+001
  0.65277625E-002
 -0.15248765E+001
 -0.19027177E-002
 -0.17864326E+001
 -0.20935815E-002
 -0.16619089E+001
  0.95830135E-003
 -0.15148379E+001
  0.81028700E-003
 -0.20138719E+001
 -0.59526030E-002
 -0.20534908E+001
 -0.21301071E-003
  0.25240302E-001
 -0.37831218E-001
 -0.00000000E+000
 -0.00000000E+000
 -0.23374740E-001
 -0.00000000E+000
 -0.00000000E+000
 -0.16846978E-001
 -0.00000000E+000
 -0.00000000E+000
 -0.18749696E-001
 -0.00000000E+000
 -0.00000000E+000
 -0.20843277E-001
 -0.00000000E+000
 -0.00000000E+000
 -0.19884976E-001
 -0.00000000E+000
 -0.00000000E+000
 -0.19074689E-001
 -0.00000000E+000
 -0.00000000E+000
 -0.25027292E-001
 -0.00000000E+000
 -0.00000000E+000
 -0.25240302E-001
 -0.00000000E+000
 -0.00000000E+000
  0.00000000E+000
  0.49811835E+002
 -0.49811835E+002
  0.95784577E+002
 -0.45972742E+002
  0.68351811E+002
  0.27432766E+002
  0.82808837E+002
 -0.14457026E+002
  0.98971405E+002
 -0.16162568E+002
  0.95093484E+002
  0.38779211E+001
  0.85777911E+002
  0.93155734E+001
  0.10149197E+003
 -0.15714060E+002
  0.28801334E+002
  0.72690636E+002
  0.28801334E+002
  0.00000000E+000
 -0.49811835E+002
  0.00000000E+000
 -0.45972742E+002
  0.00000000E+000
  0.27432766E+002
  0.00000000E+000
 -0.14457026E+002
  0.00000000E+000
 -0.16162568E+002
  0.00000000E+000
  0.38779211E+001
  0.00000000E+000
  0.93155734E+001
  0.00000000E+000
 -0.15714060E+002
  0.00000000E+000
  0.72690636E+002
  0.28801334E+002
 -0.26850650E+001
 -0.47126770E+002
 -0.47030193E+001
 -0.43954788E+002
 -0.37527617E+001
  0.26482508E+002
 -0.40820487E+001
 -0.14127739E+002
 -0.43503758E+001
 -0.15894241E+002
 -0.44469978E+001
  0.39745430E+001
 -0.43255159E+001
  0.91940915E+001
 -0.49211443E+001
 -0.15118432E+002
 -0.15284023E+001
  0.69297894E+002
  0.27272932E+002
 -0.68188349E+001
 -0.40307935E+002
 -0.12197779E+002
 -0.38575845E+002
 -0.88416361E+001
  0.23126366E+002
 -0.10544737E+002
 -0.12424638E+002
 -0.12610496E+002
 -0.13828482E+002
 -0.12536655E+002
  0.39007012E+001
 -0.11121388E+002
  0.77788247E+001
 -0.12527415E+002
 -0.13712404E+002
 -0.37148458E+001
  0.60485325E+002
  0.23558086E+002
 -0.91277294E+001
 -0.31180205E+002
 -0.17022088E+002
 -0.30681486E+002
 -0.12027814E+002
  0.18132092E+002
 -0.14779134E+002
 -0.96733181E+001
 -0.17931352E+002
 -0.10676264E+002
 -0.17347197E+002
  0.33165460E+001
 -0.15364989E+002
  0.57966173E+001
 -0.17791989E+002
 -0.11285405E+002
 -0.51326887E+001
  0.47826025E+002
  0.18425397E+002
 -0.94285308E+001
 -0.21751674E+002
 -0.18113224E+002
 -0.21996792E+002
 -0.12637587E+002
  0.12656455E+002
 -0.15700499E+002
 -0.66104064E+001
 -0.19124492E+002
 -0.72522709E+001
 -0.18240085E+002
  0.24321392E+001
 -0.16208555E+002
  0.37650876E+001
 -0.19134557E+002
 -0.83594026E+001
 -0.54301888E+001
  0.34121657E+002
  0.12995209E+002
 -0.88111280E+001
 -0.12940546E+002
 -0.17364621E+002
 -0.13443300E+002
 -0.12134860E+002
  0.74266936E+001
 -0.15020160E+002
 -0.37251056E+001
 -0.18202912E+002
 -0.40695191E+001
 -0.17222675E+002
  0.14519017E+001
 -0.15451635E+002
  0.19940483E+001
 -0.18533877E+002
 -0.52771613E+001
 -0.51786026E+001
  0.20766383E+002
  0.78166061E+001
 -0.73888130E+001
 -0.55517334E+001
 -0.14859403E+002
 -0.59727103E+001
 -0.10531808E+002
  0.30990986E+001
 -0.12815353E+002
 -0.14415602E+001
 -0.15308397E+002
 -0.15764755E+001
 -0.14442329E+002
  0.58583389E+000
 -0.13152417E+002
  0.70413672E+000
 -0.16048524E+002
 -0.23810543E+001
 -0.44178333E+001
  0.91356917E+001
  0.33987728E+001
 -0.44720828E+001
 -0.10796506E+001
 -0.92379513E+001
 -0.12068418E+001
 -0.67130300E+001
  0.57417728E+000
 -0.79160876E+001
 -0.23850265E+000
 -0.92326540E+001
 -0.25990912E+000
 -0.87457936E+001
  0.98973503E-001
 -0.81446344E+001
  0.10297754E+000
 -0.10049450E+002
 -0.47623825E+000
 -0.27284752E+001
  0.18147164E+001
  0.67029763E+000
 -0.10674822E+001
 -0.12168383E-001
 -0.22601309E+001
 -0.14193089E-001
 -0.16920466E+001
  0.60929708E-002
 -0.19286953E+001
 -0.18539712E-002
 -0.21864031E+001
 -0.22012529E-002
 -0.20882739E+001
  0.84422521E-003
 -0.19858451E+001
  0.54879671E-003
 -0.24566168E+001
 -0.54665826E-002
 -0.66265053E+000
  0.20750192E-001
  0.76470951E-002
 -0.12168383E-001
 -0.00000000E+000
 -0.00000000E+000
 -0.26361473E-001
 -0.00000000E+000
 -0.00000000E+000
 -0.20268502E-001
 -0.00000000E+000
 -0.00000000E+000
 -0.22122473E-001
 -0.00000000E+000
 -0.00000000E+000
 -0.24323726E-001
 -0.00000000E+000
 -0.00000000E+000
 -0.23479501E-001
 -0.00000000E+000
 -0.00000000E+000
 -0.22930704E-001
 -0.00000000E+000
 -0.00000000E+000
 -0.28397287E-001
 -0.00000000E+000
 -0.00000000E+000
 -0.76470951E-002
 -0.00000000E+000
 -0.00000000E+000
  0.00000000E+000
  0.18732729E+001
 -0.18732729E+001
  0.30587048E+001
 -0.11854319E+001
  0.84138583E+000
  0.22173190E+001
  0.72888594E+000
  0.11249988E+000
 -0.37739031E+000
  0.11062763E+001
 -0.94824463E+000
  0.57085432E+000
 -0.15545335E+001
  0.60628883E+000
 -0.20941230E+001
  0.53958954E+000
 -0.33660115E+001
  0.12718885E+001
 -0.33660115E+001
  0.00000000E+000
 -0.18732729E+001
  0.00000000E+000
 -0.11854319E+001
  0.00000000E+000
  0.22173190E+001
  0.00000000E+000
  0.11249988E+000
  0.00000000E+000
  0.11062763E+001
  0.00000000E+000
  0.57085432E+000
  0.00000000E+000
  0.60628883E+000
  0.00000000E+000
  0.53958954E+000
  0.00000000E+000
  0.12718885E+001
 -0.33660115E+001
 -0.24362593E+000
 -0.16296470E+001
  0.16659832E+000
 -0.15956561E+001
 -0.32329969E-001
  0.24162473E+001
  0.19965482E-001
  0.60204433E-001
  0.47475176E-001
  0.10787666E+001
  0.86478425E-001
  0.53185107E+000
  0.13642793E+000
  0.55633933E+000
  0.18244247E+000
  0.49357499E+000
  0.27680590E+000
  0.11775251E+001
 -0.30892056E+001
 -0.10570517E+001
 -0.57259528E+000
 -0.35038312E+000
 -0.23023247E+001
 -0.20086932E+000
  0.22667335E+001
 -0.18880066E+000
  0.48135774E-001
  0.17671221E-001
  0.87229468E+000
  0.12194670E+000
  0.42757559E+000
  0.24948669E+000
  0.42879934E+000
  0.36975895E+000
  0.37330273E+000
  0.58930042E+000
  0.95798365E+000
 -0.24999052E+001
 -0.99894903E+000
  0.42635375E+000
 -0.64478693E+000
 -0.26564868E+001
 -0.23838032E+000
  0.18603269E+001
 -0.21502493E+000
  0.24780382E-001
  0.31551424E-001
  0.62571833E+000
  0.15364677E+000
  0.30548024E+000
  0.28903656E+000
  0.29340954E+000
  0.41200876E+000
  0.25033053E+000
  0.66406051E+000
  0.70593190E+000
 -0.18358447E+001
 -0.26953729E+000
  0.69589104E+000
 -0.74847230E+000
 -0.21775518E+001
 -0.17123205E+000
  0.12830866E+001
 -0.17877234E+000
  0.32320669E-001
  0.49585216E-001
  0.39736077E+000
  0.15674226E+000
  0.19832320E+000
  0.27025338E+000
  0.17989843E+000
  0.37051212E+000
  0.15007179E+000
  0.60449651E+000
  0.47194751E+000
 -0.12313482E+001
  0.49003459E+000
  0.20585645E+000
 -0.72094390E+000
 -0.96657333E+000
 -0.10196453E+000
  0.66410724E+000
 -0.12279575E+000
  0.53151884E-001
  0.63897965E-001
  0.21066706E+000
  0.15246794E+000
  0.10975322E+000
  0.24066590E+000
  0.91700472E-001
  0.31558484E+000
  0.75152854E-001
  0.51858801E+000
  0.26894434E+000
 -0.71276020E+000
  0.22058251E+000
 -0.14726060E-001
 -0.50525433E+000
 -0.24073648E+000
 -0.71576945E-001
  0.23042985E+000
 -0.54497242E-001
  0.36072180E-001
  0.77342782E-001
  0.78827037E-001
  0.14351446E+000
  0.43581542E-001
  0.20182208E+000
  0.33392851E-001
  0.24991818E+000
  0.27056754E-001
  0.40676106E+000
  0.11210146E+000
 -0.30599914E+000
  0.11591051E-002
 -0.15885165E-001
 -0.21969885E+000
 -0.19878529E-001
 -0.24307034E-001
  0.35038042E-001
  0.29444707E-002
  0.88206752E-002
  0.68706243E-001
  0.13065265E-001
  0.10477999E+000
  0.75077901E-002
  0.13285900E+000
  0.53138460E-002
  0.15551724E+000
  0.43985183E-002
  0.24588546E+000
  0.21733232E-001
 -0.60113674E-001
 -0.15695824E-001
 -0.18934076E-003
 -0.35522716E-001
 -0.51637527E-004
 -0.78145232E-003
  0.29677866E-003
  0.79265796E-002
  0.11264327E-003
  0.20867785E-001
  0.12405976E-003
  0.28305413E-001
  0.70162431E-004
  0.33575191E-001
  0.44067848E-004
  0.37937774E-001
  0.35934829E-004
  0.59422186E-001
  0.24882016E-003
 -0.69148868E-003
 -0.18934076E-003
 -0.00000000E+000
 -0.00000000E+000
 -0.24097829E-003
 -0.00000000E+000
 -0.00000000E+000
  0.55800373E-004
  0.00000000E+000
  0.00000000E+000
  0.16844364E-003
 -0.00000000E+000
  0.00000000E+000
  0.29250341E-003
 -0.00000000E+000
  0.00000000E+000
  0.36266584E-003
 -0.00000000E+000
  0.00000000E+000
  0.40673368E-003
 -0.00000000E+000
  0.00000000E+000
  0.44266851E-003
 -0.00000000E+000
  0.00000000E+000
  0.69148868E-003
 -0.00000000E+000
  0.00000000E+000
 -0.00000000E+000
 -0.26413463E+001
  0.26413463E+001
  0.56112364E+000
 -0.32024700E+001
 -0.10916073E+001
  0.16527309E+001
 -0.14817706E+001
  0.39016336E+000
 -0.17344336E+001
  0.25266301E+000
 -0.14188156E+001
 -0.31561807E+000
 -0.11284991E+001
 -0.29031649E+000
 -0.65587435E+000
 -0.47262471E+000
  0.54863096E-001
 -0.71073744E+000
  0.54863096E-001
  0.00000000E+000
  0.26413463E+001
  0.00000000E+000
 -0.32024700E+001
  0.00000000E+000
  0.16527309E+001
  0.00000000E+000
  0.39016336E+000
  0.00000000E+000
  0.25266301E+000
  0.00000000E+000
 -0.31561807E+000
  0.00000000E+000
 -0.29031649E+000
  0.00000000E+000
 -0.47262471E+000
  0.00000000E+000
 -0.71073744E+000
  0.54863096E-001
  0.23644656E+000
  0.24048998E+001
 -0.91458672E-001
 -0.28745647E+001
  0.14719269E-001
  0.15465530E+001
  0.49479854E-002
  0.39993464E+000
  0.12947565E-001
  0.24466343E+000
 -0.15103540E-002
 -0.30116015E+000
 -0.18406543E-001
 -0.27342030E+000
 -0.35801412E-001
 -0.45522984E+000
 -0.64182318E-001
 -0.68235654E+000
 -0.93192215E-002
  0.68749813E+000
  0.17174016E+001
 -0.40296462E+000
 -0.17841020E+001
 -0.12195554E+000
  0.12655439E+001
 -0.16102772E+000
  0.43900683E+000
 -0.19502796E+000
  0.27866367E+000
 -0.29576750E+000
 -0.20042062E+000
 -0.33397593E+000
 -0.23521187E+000
 -0.35204491E+000
 -0.43716086E+000
 -0.43443606E+000
 -0.59996540E+000
 -0.44375528E+000
  0.76514165E+000
  0.95225998E+000
 -0.32420413E+000
 -0.69475619E+000
  0.40776031E-001
  0.90056370E+000
  0.63221910E-001
  0.41656095E+000
  0.69103156E-001
  0.27278242E+000
 -0.27352933E-001
 -0.10396453E+000
 -0.87291753E-001
 -0.17527305E+000
 -0.15216663E+000
 -0.37228598E+000
 -0.28583563E+000
 -0.46629640E+000
 -0.72959091E+000
  0.47420960E+000
  0.47805039E+000
 -0.97755064E-001
 -0.12279153E+000
  0.19338113E+000
  0.60942751E+000
  0.27144919E+000
  0.33849289E+000
  0.31126593E+000
  0.23296568E+000
  0.24305729E+000
 -0.35755882E-001
  0.18070122E+000
 -0.11291699E+000
  0.86345378E-001
 -0.27793014E+000
 -0.64917146E-001
 -0.31503387E+000
 -0.79450805E+000
  0.20790046E+000
  0.27014992E+000
  0.10999486E+000
 -0.24885930E-001
  0.33387990E+000
  0.38554246E+000
  0.44346670E+000
  0.22890609E+000
  0.50596707E+000
  0.17046531E+000
  0.46053396E+000
  0.96772320E-002
  0.39777944E+000
 -0.50162472E-001
  0.28551796E+000
 -0.16566866E+000
  0.13741367E+000
 -0.16692958E+000
 -0.65709438E+000
  0.16639608E+000
  0.10375385E+000
  0.12917388E+000
  0.12336271E-001
  0.35113219E+000
  0.16358415E+000
  0.47595892E+000
  0.10407937E+000
  0.56563783E+000
  0.80786391E-001
  0.55998429E+000
  0.15330773E-001
  0.52217745E+000
 -0.12355634E-001
  0.42171285E+000
 -0.65204050E-001
  0.31037291E+000
 -0.55589640E-001
 -0.34672148E+000
  0.89847100E-001
  0.13906748E-001
  0.97873087E-001
  0.43102834E-002
  0.23445350E+000
  0.27003731E-001
  0.31918700E+000
  0.19345879E-001
  0.38308300E+000
  0.16890385E-001
  0.39173119E+000
  0.66825889E-002
  0.37732871E+000
  0.20468383E-002
  0.32045489E+000
 -0.83302305E-002
  0.26895667E+000
 -0.40914188E-002
 -0.77764804E-001
  0.13843415E-001
  0.63332842E-004
  0.18160081E-001
 -0.63821958E-005
  0.44992030E-001
  0.17178095E-003
  0.64198178E-001
  0.13973104E-003
  0.80934843E-001
  0.15372039E-003
  0.87520845E-001
  0.96587215E-004
  0.89482047E-001
  0.85635798E-004
  0.81146095E-001
  0.57217056E-005
  0.76990012E-001
  0.64664345E-004
 -0.77479209E-003
  0.63332842E-004
 -0.00000000E+000
 -0.00000000E+000
  0.56950646E-004
 -0.00000000E+000
 -0.00000000E+000
  0.22873159E-003
 -0.00000000E+000
 -0.00000000E+000
  0.36846263E-003
 -0.00000000E+000
 -0.00000000E+000
  0.52218302E-003
 -0.00000000E+000
 -0.00000000E+000
  0.61877024E-003
 -0.00000000E+000
 -0.00000000E+000
  0.70440604E-003
  0.00000000E+000
  0.00000000E+000
  0.71012774E-003
 -0.00000000E+000
  0.00000000E+000
  0.77479209E-003
 -0.00000000E+000
  0.00000000E+000
 -0.00000000E+000
  0.21782160E+002
 -0.21782160E+002
  0.16255160E+002
  0.55270003E+001
  0.54764462E+001
  0.10778714E+002
 -0.13512929E+001
  0.68277391E+001
 -0.15807226E+001
  0.22942970E+000
 -0.19426098E+001
  0.36188719E+000
 -0.18129130E+001
 -0.12969681E+000
 -0.13450299E+001
 -0.46788306E+000
 -0.11647744E+000