# vtk DataFile Version 2.0
BldPointCP.BldC
ASCII
 
DATASET POLYDATA
POINTS 9 double
  0.74876606E+001 -0.87268139E+001  0.10631445E+003
  0.18225903E+002 -0.21459198E+002  0.94545041E+002
  0.26839055E+002 -0.31627032E+002  0.82365717E+002
  0.32648744E+002 -0.38449811E+002  0.70105966E+002
  0.34504471E+002 -0.40609153E+002  0.58094099E+002
  0.32633588E+002 -0.38393308E+002  0.46092319E+002
  0.26821435E+002 -0.31560489E+002  0.33828519E+002
  0.18204249E+002 -0.21428840E+002  0.21611218E+002
  0.74198619E+001 -0.87356052E+001  0.98398741E+001
  
POINT_DATA 9
SCALARS Gamma_LL double
LOOKUP_TABLE default
  0.49811835E+002
  0.95784577E+002
  0.68351811E+002
  0.82808837E+002
  0.98971405E+002
  0.95093484E+002
  0.85777911E+002
  0.10149197E+003
  0.28801334E+002
VECTORS Vind_CP double
 -0.11135831E+000 -0.17952724E+000 -0.30803106E+000
 -0.10646560E+000  0.11490398E+000 -0.22118106E+000
 -0.13277417E+000  0.12504179E+000 -0.11434718E+000
 -0.32117171E+000  0.29043575E+000 -0.11823428E+000
 -0.48938005E+000  0.46293848E+000  0.69171409E-002
 -0.38212471E+000  0.35459000E+000  0.16574182E+000
 -0.19390893E+000  0.19124164E+000  0.18615316E+000
 -0.17176623E+000  0.17178455E+000  0.25400029E+000
 -0.71952756E-001 -0.76488436E-001  0.56919183E-001
VECTORS Vtot_CP double
 -0.30787291E+000 -0.13938807E+002  0.45632074E+000
 -0.22816997E+002 -0.32035127E+002  0.38134675E+000
 -0.41379195E+002 -0.46476927E+002 -0.70534022E+000
 -0.53378435E+002 -0.57587863E+002 -0.62221619E+000
 -0.56911347E+002 -0.62158791E+002  0.73398860E-001
 -0.53101035E+002 -0.58933852E+002  0.58457786E+000
 -0.40835533E+002 -0.48048924E+002  0.83403297E+000
 -0.22091590E+002 -0.32569625E+002  0.46962621E+000
  0.13117693E+001 -0.13513361E+002 -0.36279483E-001
VECTORS Vstr_CP double
  0.17396515E+002  0.13759280E+002 -0.76435181E+000
  0.39910531E+002  0.32150031E+002 -0.60252782E+000
  0.58446421E+002  0.46601969E+002  0.59099303E+000
  0.70257264E+002  0.57878298E+002  0.50398191E+000
  0.73621967E+002  0.62621729E+002 -0.66481719E-001
  0.69918911E+002  0.59288442E+002 -0.41883605E+000
  0.57841624E+002  0.48240165E+002 -0.64787981E+000
  0.39119824E+002  0.32741410E+002 -0.21562593E+000
  0.15816278E+002  0.13436872E+002  0.93198666E-001
VECTORS Vwnd_CP double
  0.17200000E+002  0.00000000E+000  0.00000000E+000
  0.17200000E+002  0.00000000E+000  0.00000000E+000
  0.17200000E+002  0.00000000E+000  0.00000000E+000
  0.17200000E+002  0.00000000E+000  0.00000000E+000
  0.17200000E+002  0.00000000E+000  0.00000000E+000
  0.17200000E+002  0.00000000E+000  0.00000000E+000
  0.17200000E+002  0.00000000E+000  0.00000000E+000
  0.17200000E+002  0.00000000E+000  0.00000000E+000
  0.17200000E+002  0.00000000E+000  0.00000000E+000
VECTORS Tangent double
 -0.56326757E+000 -0.82627446E+000  0.40150083E-003
 -0.76113753E+000 -0.64858632E+000  0.23336803E-002
 -0.76619892E+000 -0.64260283E+000  0.90771468E-003
 -0.76438294E+000 -0.64476232E+000 -0.51701706E-003
 -0.76125293E+000 -0.64845500E+000 -0.28826799E-003
 -0.76268205E+000 -0.64677355E+000 -0.26433941E-003
 -0.76384064E+000 -0.64540489E+000  0.44976114E-004
 -0.76183107E+000 -0.64777574E+000  0.14759594E-003
 -0.76151491E+000 -0.64814233E+000 -0.25610721E-002
VECTORS Normal double
  0.43717336E+000 -0.29760671E+000  0.84871061E+000
  0.41683349E+000 -0.48640495E+000  0.76789326E+000
  0.45531839E+000 -0.54189494E+000  0.70642412E+000
  0.57952768E+000 -0.68739655E+000  0.43775981E+000
  0.64845310E+000 -0.76124946E+000 -0.28001570E-002
  0.58068096E+000 -0.68456489E+000 -0.44065921E+000
  0.45779434E+000 -0.54185152E+000 -0.70485550E+000
  0.41622536E+000 -0.48968565E+000 -0.76613603E+000
  0.33381649E+000 -0.38881430E+000 -0.85871415E+000
VECTORS Orth double
  0.70114841E+000 -0.47822669E+000 -0.52885739E+000
  0.49690996E+000 -0.58544514E+000 -0.64057356E+000
  0.45345825E+000 -0.54167469E+000 -0.70778821E+000
  0.28260643E+000 -0.33431651E+000 -0.89909181E+000
 -0.15963319E-002  0.23185560E-002 -0.99999604E+000
 -0.28482576E+000  0.33623637E+000 -0.89767444E+000
 -0.45494155E+000  0.53837668E+000 -0.70935092E+000
 -0.49635660E+000  0.58360479E+000 -0.64267843E+000
 -0.55557321E+000  0.65477856E+000 -0.51244848E+000
