# vtk DataFile Version 2.0
BldPointCP.BldA
ASCII
 
DATASET POLYDATA
POINTS 9 double
 -0.11442046E+002 -0.61878920E+000  0.10635767E+003
 -0.28051702E+002 -0.15181999E+001  0.94574056E+002
 -0.41299313E+002 -0.22364486E+001  0.82329997E+002
 -0.50269189E+002 -0.27236662E+001  0.70075305E+002
 -0.53169456E+002 -0.28814750E+001  0.58093870E+002
 -0.50268781E+002 -0.27245111E+001  0.46112637E+002
 -0.41298789E+002 -0.22378392E+001  0.33857793E+002
 -0.28052105E+002 -0.15189974E+001  0.21613134E+002
 -0.11444589E+002 -0.61947564E+000  0.98274120E+001
  
POINT_DATA 9
SCALARS Gamma_LL double
LOOKUP_TABLE default
 -0.16115230E+000
 -0.42476868E+001
 -0.37148907E+001
 -0.38296578E+001
 -0.40187034E+001
 -0.38995939E+001
 -0.38868845E+001
 -0.43913214E+001
 -0.22737533E+001
VECTORS Vind_CP double
 -0.20691469E-003 -0.24446714E-002 -0.15734654E-002
 -0.90210074E-002 -0.38803053E-004  0.86424386E-002
 -0.80070608E-002 -0.21162148E-003  0.56517395E-002
 -0.11882154E-001 -0.37796078E-003  0.40841523E-002
 -0.15771015E-001 -0.48894829E-003 -0.29451398E-004
 -0.12257478E-001 -0.44866276E-003 -0.43225592E-002
 -0.83067445E-002 -0.28511990E-003 -0.60545832E-002
 -0.91142880E-002 -0.17307990E-003 -0.90427431E-002
 -0.32974309E-002 -0.26997627E-003 -0.14464644E-002
VECTORS Vtot_CP double
  0.15761668E+002  0.20607298E+002 -0.29738398E+000
  0.14285876E+002  0.50781482E+002 -0.56717722E+000
  0.12830399E+002  0.74891369E+002 -0.46678020E+000
  0.11743370E+002  0.91168858E+002 -0.32029534E+000
  0.11385077E+002  0.96449684E+002 -0.31051572E+000
  0.11717969E+002  0.91232335E+002 -0.31020229E+000
  0.12846045E+002  0.74995775E+002 -0.12559550E+000
  0.14400680E+002  0.50849782E+002  0.36422986E-001
  0.16078631E+002  0.20665726E+002  0.14721957E-001
VECTORS Vstr_CP double
  0.14381252E+001 -0.20609743E+002  0.29581051E+000
  0.29051029E+001 -0.50781521E+002  0.57581966E+000
  0.43615936E+001 -0.74891580E+002  0.47243194E+000
  0.54447480E+001 -0.91169236E+002  0.32437949E+000
  0.57991524E+001 -0.96450173E+002  0.31048627E+000
  0.54697732E+001 -0.91232783E+002  0.30587973E+000
  0.43456482E+001 -0.74996060E+002  0.11954092E+000
  0.27902058E+001 -0.50849955E+002 -0.45465729E-001
  0.11180717E+001 -0.20665996E+002 -0.16168421E-001
VECTORS Vwnd_CP double
  0.17200000E+002  0.00000000E+000  0.00000000E+000
  0.17200000E+002  0.00000000E+000  0.00000000E+000
  0.17200000E+002  0.00000000E+000  0.00000000E+000
  0.17200000E+002  0.00000000E+000  0.00000000E+000
  0.17200000E+002  0.00000000E+000  0.00000000E+000
  0.17200000E+002  0.00000000E+000  0.00000000E+000
  0.17200000E+002  0.00000000E+000  0.00000000E+000
  0.17200000E+002  0.00000000E+000  0.00000000E+000
  0.17200000E+002  0.00000000E+000  0.00000000E+000
VECTORS Tangent double
 -0.75104211E+000  0.66025430E+000  0.28257886E-004
 -0.55002772E-001  0.99848613E+000  0.38295848E-003
 -0.55301916E-001  0.99846954E+000  0.52104498E-003
 -0.54810493E-001  0.99849674E+000  0.24717433E-003
 -0.54475594E-001  0.99851510E+000 -0.11599863E-003
 -0.54035478E-001  0.99853888E+000 -0.51823129E-003
 -0.53730837E-001  0.99855540E+000 -0.33796981E-003
 -0.53846798E-001  0.99854921E+000 -0.35712274E-004
 -0.53996550E-001  0.99854112E+000 -0.46018024E-005
VECTORS Normal double
 -0.42780496E+000 -0.48666259E+000  0.76167082E+000
 -0.64427417E+000 -0.35783601E-001  0.76395702E+000
 -0.70916690E+000 -0.39645741E-001  0.70392508E+000
 -0.89463340E+000 -0.49219052E-001  0.44408172E+000
 -0.99851510E+000 -0.54475595E-001 -0.63036487E-005
 -0.89464140E+000 -0.48643612E-001 -0.44412899E+000
 -0.70927077E+000 -0.38403083E-001 -0.70388932E+000
 -0.64437678E+000 -0.34775359E-001 -0.76391704E+000
 -0.51101984E+000 -0.27637582E-001 -0.85912449E+000
VECTORS Orth double
 -0.50291019E+000 -0.57203477E+000 -0.64796417E+000
 -0.76281419E+000 -0.41773024E-001 -0.64526702E+000
 -0.70286841E+000 -0.38558898E-001 -0.71027404E+000
 -0.44342631E+000 -0.24119207E-001 -0.89598625E+000
  0.12613383E-004 -0.11548299E-003 -0.99999999E+000
  0.44350527E+000  0.23535091E-001 -0.89596271E+000
  0.70288546E+000  0.37580850E-001 -0.71030959E+000
  0.76280999E+000  0.41111474E-001 -0.64531446E+000
  0.85787126E+000  0.46387407E-001 -0.51176666E+000
