# vtk DataFile Version 2.0

ASCII
 
DATASET POLYDATA
POINTS 130 double
  0.13839604E+000  0.29997315E-001  0.11318127E+003
  0.13626905E+002 -0.15422679E+002  0.10085373E+003
  0.23222888E+002 -0.26395559E+002  0.88717092E+002
  0.31284545E+002 -0.35539614E+002  0.76522361E+002
  0.35241858E+002 -0.40002661E+002  0.64223609E+002
  0.35230881E+002 -0.39952835E+002  0.51963341E+002
  0.31256265E+002 -0.35441753E+002  0.39690140E+002
  0.23205688E+002 -0.26329453E+002  0.27454818E+002
  0.13585685E+002 -0.15420324E+002  0.15265756E+002
  0.18812973E-003  0.51327458E-004  0.30001700E+001
 -0.12920510E+001 -0.42365850E+001  0.11317145E+003
  0.10340193E+002 -0.18366370E+002  0.10086654E+003
  0.20885880E+002 -0.28427533E+002  0.88725581E+002
  0.29428076E+002 -0.37146738E+002  0.76520561E+002
  0.33549394E+002 -0.41494000E+002  0.64222455E+002
  0.33508810E+002 -0.41476908E+002  0.51963095E+002
  0.29297991E+002 -0.37152508E+002  0.39689492E+002
  0.20630434E+002 -0.28588419E+002  0.27456166E+002
  0.10216857E+002 -0.18403778E+002  0.15265864E+002
 -0.33775713E+001 -0.29731624E+001  0.29729444E+001
 -0.11958764E+001 -0.42145754E+001  0.11316923E+003
  0.10177241E+002 -0.18549199E+002  0.10084971E+003
  0.20538730E+002 -0.28794963E+002  0.88719684E+002
  0.28919922E+002 -0.37663347E+002  0.76514919E+002
  0.32956418E+002 -0.42077877E+002  0.64219258E+002
  0.32915230E+002 -0.42059190E+002  0.51967009E+002
  0.28788120E+002 -0.37665116E+002  0.39696769E+002
  0.20279504E+002 -0.28950110E+002  0.27463289E+002
  0.10053771E+002 -0.18582941E+002  0.15268885E+002
 -0.32626904E+001 -0.29108026E+001  0.29596585E+001
 -0.11261089E+001 -0.41933286E+001  0.11316941E+003
  0.99965148E+001 -0.18721739E+002  0.10085553E+003
  0.20176874E+002 -0.29143699E+002  0.88714217E+002
  0.28390547E+002 -0.38152533E+002  0.76501543E+002
  0.32349437E+002 -0.42648640E+002  0.64216732E+002
  0.32308578E+002 -0.42640184E+002  0.51971404E+002
  0.28259924E+002 -0.38170322E+002  0.39708101E+002
  0.19916240E+002 -0.29303072E+002  0.27473621E+002
  0.98856284E+001 -0.18756582E+002  0.15270334E+002
 -0.31464670E+001 -0.28478221E+001  0.29541061E+001
 -0.10540740E+001 -0.41697734E+001  0.11316938E+003
  0.98136737E+001 -0.18889430E+002  0.10085562E+003
  0.19811416E+002 -0.29484371E+002  0.88709951E+002
  0.27855795E+002 -0.38632590E+002  0.76490333E+002
  0.31736372E+002 -0.43210142E+002  0.64215084E+002
  0.31695797E+002 -0.43210552E+002  0.51974112E+002
  0.27726290E+002 -0.38664843E+002  0.39716426E+002
  0.19548789E+002 -0.29647696E+002  0.27481115E+002
  0.97147772E+001 -0.18924517E+002  0.15271102E+002
 -0.30286869E+001 -0.27839974E+001  0.29493099E+001
 -0.98039951E+000 -0.41435457E+001  0.11316798E+003
  0.96301196E+001 -0.19050488E+002  0.10086298E+003
  0.19442346E+002 -0.29817047E+002  0.88707014E+002
  0.27315973E+002 -0.39103902E+002  0.76481658E+002
  0.31118540E+002 -0.43763627E+002  0.64214565E+002
  0.31078408E+002 -0.43771444E+002  0.51974923E+002
  0.27187728E+002 -0.39148850E+002  0.39721497E+002
  0.19177291E+002 -0.29983909E+002  0.27485728E+002
  0.95417106E+001 -0.19086308E+002  0.15270371E+002
 -0.29090300E+001 -0.27195242E+001  0.29495463E+001
 -0.90356436E+000 -0.41150879E+001  0.11316707E+003
  0.94503442E+001 -0.19202599E+002  0.10088415E+003
  0.19069465E+002 -0.30141612E+002  0.88705315E+002
  0.26771096E+002 -0.39566479E+002  0.76475680E+002
  0.30495901E+002 -0.44308734E+002  0.64215262E+002
  0.30456509E+002 -0.44322584E+002  0.51973800E+002
  0.26644353E+002 -0.39622124E+002  0.39723357E+002
  0.18801667E+002 -0.30311406E+002  0.27487721E+002
  0.93660510E+001 -0.19242210E+002  0.15268874E+002
 -0.27873755E+001 -0.26543861E+001  0.29506367E+001
 -0.82329611E+000 -0.40844496E+001  0.11316689E+003
  0.92659167E+001 -0.19352063E+002  0.10089064E+003
  0.18692458E+002 -0.30457864E+002  0.88704632E+002
  0.26220178E+002 -0.40019017E+002  0.76471716E+002
  0.29866712E+002 -0.44842943E+002  0.64216418E+002
  0.29828241E+002 -0.44861359E+002  0.51971721E+002
  0.26094981E+002 -0.40083144E+002  0.39723082E+002
  0.18421743E+002 -0.30629742E+002  0.27487488E+002
  0.91881708E+001 -0.19391930E+002  0.15266278E+002
 -0.26637349E+001 -0.25885690E+001  0.29524811E+001
 -0.73913105E+000 -0.40518416E+001  0.11316713E+003
  0.90835535E+001 -0.19494228E+002  0.10090599E+003
  0.18310964E+002 -0.30765454E+002  0.88704689E+002
  0.25662944E+002 -0.40460922E+002  0.76469603E+002
  0.29229935E+002 -0.45364354E+002  0.64217916E+002
  0.29192448E+002 -0.45385946E+002  0.51968911E+002
  0.25539172E+002 -0.40531290E+002  0.39721088E+002
  0.18037238E+002 -0.30938358E+002  0.27485668E+002
  0.90087120E+001 -0.19535044E+002  0.15259938E+002
 -0.25382079E+001 -0.25219565E+001  0.29547365E+001
 -0.65123456E+000 -0.40163990E+001  0.11316621E+003
  0.88983885E+001 -0.19632179E+002  0.10093027E+003
  0.17924491E+002 -0.31063916E+002  0.88704992E+002
  0.25098873E+002 -0.40891101E+002  0.76468764E+002
  0.28583172E+002 -0.45869039E+002  0.64219215E+002
  0.28546477E+002 -0.45892530E+002  0.51966059E+002
  0.24976168E+002 -0.40965484E+002  0.39718228E+002
  0.17645780E+002 -0.31234203E+002  0.27486793E+002
  0.88264147E+001 -0.19672490E+002  0.15253945E+002
 -0.24110467E+001 -0.24546454E+001  0.29571286E+001
 -0.55839254E+000 -0.39805232E+001  0.11316701E+003
  0.87141686E+001 -0.19763507E+002  0.10094888E+003
  0.17530704E+002 -0.31350392E+002  0.88701635E+002
  0.24527559E+002 -0.41308179E+002  0.76468706E+002
  0.27923350E+002 -0.46352184E+002  0.64219927E+002
  0.27886818E+002 -0.46376194E+002  0.51963797E+002
  0.24405261E+002 -0.41384252E+002  0.39715167E+002
  0.17249331E+002 -0.31519221E+002  0.27487288E+002
  0.86426100E+001 -0.19804030E+002  0.15246355E+002
 -0.22825002E+001 -0.23867510E+001  0.29646095E+001
 -0.46111163E+000 -0.39426646E+001  0.11316726E+003
  0.85292605E+001 -0.19888626E+002  0.10095583E+003
  0.17131183E+002 -0.31626535E+002  0.88696355E+002
  0.23950186E+002 -0.41713012E+002  0.76469587E+002
  0.27254437E+002 -0.46818012E+002  0.64220356E+002
  0.27217655E+002 -0.46841634E+002  0.51962263E+002
  0.23827376E+002 -0.41788723E+002  0.39712219E+002
  0.16848852E+002 -0.31794549E+002  0.27487226E+002
  0.84568484E+001 -0.19929142E+002  0.15240603E+002
 -0.21527754E+001 -0.23178272E+001  0.29661871E+001
 -0.36057541E+000 -0.39029107E+001  0.11316717E+003
  0.83394707E+001 -0.20003700E+002  0.10095338E+003
  0.16730735E+002 -0.31898357E+002  0.88696633E+002
  0.23368046E+002 -0.42107471E+002  0.76471487E+002
  0.26580745E+002 -0.47272542E+002  0.64220923E+002
  0.26543635E+002 -0.47295594E+002  0.51961263E+002
  0.23244265E+002 -0.42181677E+002  0.39709412E+002
  0.16445583E+002 -0.32062012E+002  0.27486063E+002
  0.82672260E+001 -0.20045274E+002  0.15242061E+002
 -0.20217272E+001 -0.22481863E+001  0.29671054E+001
  
POLYGONS 108 540
      4      0      1     11     10
      4      1      2     12     11
      4      2      3     13     12
      4      3      4     14     13
      4      4      5     15     14
      4      5      6     16     15
      4      6      7     17     16
      4      7      8     18     17
      4      8      9     19     18
      4     10     11     21     20
      4     11     12     22     21
      4     12     13     23     22
      4     13     14     24     23
      4     14     15     25     24
      4     15     16     26     25
      4     16     17     27     26
      4     17     18     28     27
      4     18     19     29     28
      4     20     21     31     30
      4     21     22     32     31
      4     22     23     33     32
      4     23     24     34     33
      4     24     25     35     34
      4     25     26     36     35
      4     26     27     37     36
      4     27     28     38     37
      4     28     29     39     38
      4     30     31     41     40
      4     31     32     42     41
      4     32     33     43     42
      4     33     34     44     43
      4     34     35     45     44
      4     35     36     46     45
      4     36     37     47     46
      4     37     38     48     47
      4     38     39     49     48
      4     40     41     51     50
      4     41     42     52     51
      4     42     43     53     52
      4     43     44     54     53
      4     44     45     55     54
      4     45     46     56     55
      4     46     47     57     56
      4     47     48     58     57
      4     48     49     59     58
      4     50     51     61     60
      4     51     52     62     61
      4     52     53     63     62
      4     53     54     64     63
      4     54     55     65     64
      4     55     56     66     65
      4     56     57     67     66
      4     57     58     68     67
      4     58     59     69     68
      4     60     61     71     70
      4     61     62     72     71
      4     62     63     73     72
      4     63     64     74     73
      4     64     65     75     74
      4     65     66     76     75
      4     66     67     77     76
      4     67     68     78     77
      4     68     69     79     78
      4     70     71     81     80
      4     71     72     82     81
      4     72     73     83     82
      4     73     74     84     83
      4     74     75     85     84
      4     75     76     86     85
      4     76     77     87     86
      4     77     78     88     87
      4     78     79     89     88
      4     80     81     91     90
      4     81     82     92     91
      4     82     83     93     92
      4     83     84     94     93
      4     84     85     95     94
      4     85     86     96     95
      4     86     87     97     96
      4     87     88     98     97
      4     88     89     99     98
      4     90     91    101    100
      4     91     92    102    101
      4     92     93    103    102
      4     93     94    104    103
      4     94     95    105    104
      4     95     96    106    105
      4     96     97    107    106
      4     97     98    108    107
      4     98     99    109    108
      4    100    101    111    110
      4    101    102    112    111
      4    102    103    113    112
      4    103    104    114    113
      4    104    105    115    114
      4    105    106    116    115
      4    106    107    117    116
      4    107    108    118    117
      4    108    109    119    118
      4    110    111    121    120
      4    111    112    122    121
      4    112    113    123    122
      4    113    114    124    123
      4    114    115    125    124
      4    115    116    126    125
      4    116    117    127    126
      4    117    118    128    127
      4    118    119    129    128
  
CELL_DATA 108
SCALARS Gamma double
LOOKUP_TABLE default
  0.51362615E+002
  0.97664204E+002
  0.70114800E+002
  0.84386465E+002
  0.10029189E+003
  0.97227542E+002
  0.87700468E+002
  0.10305057E+003
  0.29439371E+002
  0.51362615E+002
  0.97664204E+002
  0.70114800E+002
  0.84386465E+002
  0.10029189E+003
  0.97227542E+002
  0.87700468E+002
  0.10305057E+003
  0.29439371E+002
  0.50133611E+002
  0.95802285E+002
  0.68396894E+002
  0.82775051E+002
  0.98966935E+002
  0.95623256E+002
  0.85937736E+002
  0.10113575E+003
  0.28760945E+002
  0.47126770E+002
  0.91081558E+002
  0.64599049E+002
  0.78726788E+002
  0.94621029E+002
  0.90646486E+002
  0.81452395E+002
  0.96570826E+002
  0.27272932E+002
  0.40307935E+002
  0.78883779E+002
  0.55757413E+002
  0.68182051E+002
  0.82010533E+002
  0.78109832E+002
  0.70331007E+002
  0.84043411E+002
  0.23558086E+002
  0.31180205E+002
  0.61861691E+002
  0.43729599E+002
  0.53402917E+002
  0.64079181E+002
  0.60762635E+002
  0.54966018E+002
  0.66251422E+002
  0.18425397E+002
  0.21751674E+002
  0.43748467E+002
  0.31092012E+002
  0.37702419E+002
  0.44954690E+002
  0.42522550E+002
  0.38757463E+002
  0.47116865E+002
  0.12995209E+002
  0.12940546E+002
  0.26383846E+002
  0.18957153E+002
  0.22682258E+002
  0.26751777E+002
  0.25299876E+002
  0.23305827E+002
  0.28582989E+002
  0.78166061E+001
  0.55517334E+001
  0.11524444E+002
  0.84253451E+001
  0.98669053E+001
  0.11443381E+002
  0.10857547E+002
  0.10153410E+002
  0.12534465E+002
  0.33987728E+001
  0.10796506E+001
  0.22864924E+001
  0.17123151E+001
  0.19508177E+001
  0.22107269E+001
  0.21117534E+001
  0.20087758E+001
  0.24850141E+001
  0.67029763E+000
  0.12168383E-001
  0.26361473E-001
  0.20268502E-001
  0.22122473E-001
  0.24323726E-001
  0.23479501E-001
  0.22930704E-001
  0.28397287E-001
  0.76470951E-002
  0.00000000E+000
  0.00000000E+000
  0.00000000E+000
  0.00000000E+000
  0.00000000E+000
  0.00000000E+000
  0.00000000E+000
  0.00000000E+000
  0.00000000E+000
POINT_DATA 130
VECTORS Uconv double
  0.00000000E+000  0.00000000E+000  0.00000000E+000
  0.00000000E+000  0.00000000E+000  0.00000000E+000
  0.00000000E+000  0.00000000E+000  0.00000000E+000
  0.00000000E+000  0.00000000E+000  0.00000000E+000
  0.00000000E+000  0.00000000E+000  0.00000000E+000
  0.00000000E+000  0.00000000E+000  0.00000000E+000
  0.00000000E+000  0.00000000E+000  0.00000000E+000
  0.00000000E+000  0.00000000E+000  0.00000000E+000
  0.00000000E+000  0.00000000E+000  0.00000000E+000
  0.00000000E+000  0.00000000E+000  0.00000000E+000
  0.00000000E+000  0.00000000E+000  0.00000000E+000
  0.00000000E+000  0.00000000E+000  0.00000000E+000
  0.00000000E+000  0.00000000E+000  0.00000000E+000
  0.00000000E+000  0.00000000E+000  0.00000000E+000
  0.00000000E+000  0.00000000E+000  0.00000000E+000
  0.00000000E+000  0.00000000E+000  0.00000000E+000
  0.00000000E+000  0.00000000E+000  0.00000000E+000
  0.00000000E+000  0.00000000E+000  0.00000000E+000
  0.00000000E+000  0.00000000E+000  0.00000000E+000
  0.00000000E+000  0.00000000E+000  0.00000000E+000
  0.17226948E+002 -0.19484482E+000 -0.22259883E+000
  0.16951914E+002  0.42616346E-001 -0.16834671E+001
  0.16823973E+002  0.41306862E+000 -0.58967375E+000
  0.16566243E+002  0.73897706E+000 -0.56420471E+000
  0.15980492E+002  0.13646040E+001 -0.31962561E+000
  0.15888551E+002  0.14511870E+001  0.39180552E+000
  0.16402660E+002  0.90456205E+000  0.72770641E+000
  0.16731594E+002  0.52433397E+000  0.71229807E+000
  0.17003939E+002  0.18670491E+000  0.30214871E+000
  0.16788216E+002  0.10446537E+000 -0.13285946E+001
  0.17225287E+002 -0.19225966E+000 -0.22256731E+000
  0.17020554E+002  0.63996116E-001 -0.10027445E+001
  0.16872545E+002  0.35977537E+000 -0.50701527E+000
  0.16631853E+002  0.66364753E+000 -0.49680245E+000
  0.16075434E+002  0.12654686E+001 -0.28806246E+000
  0.15993085E+002  0.13451583E+001  0.35367824E+000
  0.16485978E+002  0.81429988E+000  0.64044231E+000
  0.16788645E+002  0.46223286E+000  0.61977646E+000
  0.17029084E+002  0.18155823E+000  0.23397063E+000
  0.16795362E+002  0.98940473E-001 -0.13390844E+001
  0.17223365E+002 -0.18936449E+000 -0.22249700E+000
  0.17036888E+002  0.42004794E-001 -0.86126230E+000
  0.16925045E+002  0.30037905E+000 -0.41925317E+000
  0.16721913E+002  0.55700194E+000 -0.40319317E+000
  0.16237839E+002  0.10860284E+001 -0.23843370E+000
  0.16169973E+002  0.11537448E+001  0.29444451E+000
  0.16598831E+002  0.68732462E+000  0.52513799E+000
  0.16850764E+002  0.39269780E+000  0.51794254E+000
  0.17035314E+002  0.15391118E+000  0.26395677E+000
  0.16802550E+002  0.93393654E-001 -0.13506133E+001
  0.17222012E+002 -0.18852796E+000 -0.21709131E+000
  0.17054495E+002  0.22615857E-001 -0.72265815E+000
  0.16980315E+002  0.23599767E+000 -0.32562474E+000
  0.16831438E+002  0.42418782E+000 -0.29087820E+000
  0.16457578E+002  0.83582388E+000 -0.17384949E+000
  0.16407545E+002  0.88771625E+000  0.21780291E+000
  0.16736196E+002  0.52931834E+000  0.38729382E+000
  0.16916303E+002  0.31742963E+000  0.40908932E+000
  0.17053346E+002  0.13466335E+000  0.23483848E+000
  0.16808722E+002  0.86889513E-001 -0.13635900E+001
  0.17219957E+002 -0.18616840E+000 -0.21706516E+000
  0.17074754E+002  0.89307672E-002 -0.59096011E+000
  0.17036801E+002  0.16819584E+000 -0.22847710E+000
  0.16952901E+002  0.27348803E+000 -0.16663759E+000
  0.16712639E+002  0.53766254E+000 -0.99925575E-001
  0.16681589E+002  0.57188598E+000  0.13051230E+000
  0.16886019E+002  0.35096843E+000  0.23573236E+000
  0.16983303E+002  0.23838050E+000  0.29648831E+000
  0.17070814E+002  0.11471483E+000  0.20619017E+000
  0.16814855E+002  0.80173856E-001 -0.13777826E+001
  0.17215299E+002 -0.18066510E+000 -0.21281237E+000
  0.17091378E+002 -0.11995186E-001 -0.46354749E+000
  0.17092855E+002  0.98675530E-001 -0.13032297E+000
  0.17076465E+002  0.11550363E+000 -0.38990522E-001
  0.16973447E+002  0.22229886E+000 -0.23902011E-001
  0.16960110E+002  0.23900632E+000  0.41134370E-001
  0.17037051E+002  0.16476908E+000  0.80510151E-001
  0.17049967E+002  0.15725929E+000  0.18258586E+000
  0.17097358E+002  0.10201422E+000  0.22417517E+000
  0.16820919E+002  0.73289943E-001 -0.13932159E+001
  0.17213059E+002 -0.17806574E+000 -0.21262608E+000
  0.17108784E+002 -0.29862277E-001 -0.34436028E+000
  0.17146845E+002  0.29180827E-001 -0.33690883E-001
  0.17193147E+002 -0.38927208E-001  0.88683077E-001
  0.17211312E+002 -0.77284242E-001  0.46876961E-001
  0.17212713E+002 -0.76259886E-001 -0.41808888E-001
  0.17178063E+002 -0.16114209E-001 -0.71361197E-001
  0.17113605E+002  0.76990580E-001  0.71452787E-001
  0.17108001E+002  0.77833756E-001  0.18810910E+000
  0.16826964E+002  0.66314223E-001 -0.14099558E+001
  0.17195788E+002 -0.13744619E+000 -0.27889531E+000
  0.17127648E+002 -0.45163681E-001 -0.22606337E+000
  0.17196309E+002 -0.37404606E-001  0.46159951E-001
  0.17293123E+002 -0.17723286E+000  0.19654437E+000
  0.17403151E+002 -0.33390923E+000  0.11134406E+000
  0.17415311E+002 -0.34575188E+000 -0.11306681E+000
  0.17298188E+002 -0.17822103E+000 -0.20217719E+000
  0.16966295E+002  0.24252792E+000  0.35161183E+000
  0.17125837E+002  0.58797227E-001  0.13040230E+000
  0.16833026E+002  0.59322425E-001 -0.14280371E+001
  0.17197508E+002 -0.14515858E+000 -0.25337546E+000
  0.17151609E+002 -0.85954103E-001  0.35517596E+000
  0.17051431E+002  0.12425867E+000 -0.22111853E+000
  0.17372101E+002 -0.29332043E+000  0.28972622E+000
  0.17325680E+002 -0.27887246E+000  0.15825702E+000
  0.17334560E+002 -0.29158713E+000 -0.16436039E+000
  0.17392014E+002 -0.31386895E+000 -0.31043367E+000
  0.17029609E+002  0.15694790E+000  0.23384053E+000
  0.17168582E+002  0.11190442E-001 -0.71998489E-001
  0.16835224E+002  0.50505759E-001 -0.90155998E+000
  0.17198095E+002 -0.15067826E+000 -0.23918225E+000
  0.17172104E+002 -0.91549969E-001  0.34362344E+000
  0.17100491E+002  0.53942959E-001 -0.14146402E+000
  0.17427902E+002 -0.38180983E+000  0.35671629E+000
  0.17445022E+002 -0.45759652E+000  0.18674477E+000
  0.17461213E+002 -0.47938115E+000 -0.19909583E+000
  0.17458271E+002 -0.41833407E+000 -0.39303283E+000
  0.17084951E+002  0.79289257E-001  0.13552418E+000
  0.17175658E+002 -0.30913386E-002 -0.90916881E-001
  0.16841711E+002  0.43458300E-001 -0.89195962E+000
  0.17197096E+002 -0.15258013E+000 -0.22919223E+000
  0.16989444E+002  0.10456815E+000 -0.49702617E-001
  0.17143756E+002 -0.83385887E-002 -0.54426026E-001
  0.17462466E+002 -0.44275405E+000  0.40326178E+000
  0.17511892E+002 -0.56509576E+000  0.20315530E+000
  0.17531723E+002 -0.59294476E+000 -0.21753995E+000
  0.17499450E+002 -0.49112798E+000 -0.45254619E+000
  0.17133819E+002  0.87486911E-002  0.40026510E-001
  0.16969310E+002  0.22699386E+000  0.25730457E+000
  0.16847472E+002  0.38255273E-001 -0.87789475E+000
