# vtk DataFile Version 2.0
Sgmt
ASCII
 
DATASET POLYDATA
POINTS 1440 double
  0.22141780E+000  0.50720621E-001  0.11318103E+003
 -0.19808272E+002 -0.51530955E+001  0.10118847E+003
 -0.33898250E+002 -0.88604105E+001  0.89019141E+002
 -0.45466134E+002 -0.11972229E+002  0.76650528E+002
 -0.51269927E+002 -0.13551047E+002  0.64383641E+002
 -0.51281535E+002 -0.13568504E+002  0.52138567E+002
 -0.45471616E+002 -0.12003310E+002  0.39876987E+002
 -0.33893759E+002 -0.88558693E+001  0.27498909E+002
 -0.19892261E+002 -0.51685808E+001  0.15240575E+002
  0.17493235E-003  0.44503414E-004  0.30001853E+001
 -0.41341826E+001 -0.10787669E+001  0.11312623E+003
 -0.20932933E+002 -0.88658841E+000  0.10118565E+003
 -0.34700315E+002 -0.58692087E+001  0.89020293E+002
 -0.46074519E+002 -0.95933384E+001  0.76641873E+002
 -0.51808472E+002 -0.11360506E+002  0.64378287E+002
 -0.51831403E+002 -0.11335581E+002  0.52143669E+002
 -0.46093661E+002 -0.94785173E+001  0.39877611E+002
 -0.34730050E+002 -0.55339032E+001  0.27503463E+002
 -0.21002722E+002 -0.80774697E+000  0.15243057E+002
 -0.11221051E+001  0.43578511E+001  0.30031619E+001
 -0.39817105E+001 -0.10067960E+001  0.11314059E+003
 -0.20783031E+002 -0.50582836E+000  0.10121326E+003
 -0.34646990E+002 -0.52406143E+001  0.89037956E+002
 -0.46087754E+002 -0.87612935E+001  0.76653773E+002
 -0.51853647E+002 -0.10425390E+002  0.64382292E+002
 -0.51874845E+002 -0.10400066E+002  0.52140716E+002
 -0.46101836E+002 -0.86465160E+001  0.39868081E+002
 -0.34668332E+002 -0.49057451E+001  0.27487871E+002
 -0.20852739E+002 -0.42584101E+000  0.15234597E+002
 -0.87346532E+000  0.43769512E+001  0.30074664E+001
 -0.38576819E+001 -0.93683763E+000  0.11312281E+003
 -0.20637008E+002 -0.12005780E+000  0.10120917E+003
 -0.34581849E+002 -0.45926606E+001  0.89009937E+002
 -0.46116239E+002 -0.78963100E+001  0.76638952E+002
 -0.51930527E+002 -0.94486297E+001  0.64363341E+002
 -0.51948184E+002 -0.94209715E+001  0.52111417E+002
 -0.46128954E+002 -0.77800589E+001  0.39835104E+002
 -0.34602555E+002 -0.42622452E+001  0.27467512E+002
 -0.20696504E+002 -0.39676560E-001  0.15227660E+002
 -0.62497191E+000  0.43944427E+001  0.30108602E+001
 -0.37312399E+001 -0.86610253E+000  0.11312414E+003
 -0.20480186E+002  0.26399763E+000  0.10120820E+003
 -0.34501795E+002 -0.39446459E+001  0.88981339E+002
 -0.46127690E+002 -0.70293001E+001  0.76625810E+002
 -0.51989777E+002 -0.84690153E+001  0.64346372E+002
 -0.52004221E+002 -0.84390984E+001  0.52082971E+002
 -0.46138710E+002 -0.69110781E+001  0.39803294E+002
 -0.34521850E+002 -0.36175816E+001  0.27450475E+002
 -0.20531005E+002  0.34563262E+000  0.15222994E+002
 -0.37641436E+000  0.44097486E+001  0.30187259E+001
 -0.36019370E+001 -0.79486793E+000  0.11312506E+003
 -0.20314628E+002  0.64777798E+000  0.10119466E+003
 -0.34406296E+002 -0.32971142E+001  0.88951623E+002
 -0.46119134E+002 -0.61609250E+001  0.76612783E+002
 -0.52027578E+002 -0.74871568E+001  0.64330799E+002
 -0.52039262E+002 -0.74550633E+001  0.52056208E+002
 -0.46127956E+002 -0.60403314E+001  0.39774663E+002
 -0.34428770E+002 -0.29729146E+001  0.27434793E+002
 -0.20356282E+002  0.72986546E+000  0.15220255E+002
 -0.12782056E+000  0.44234816E+001  0.30269508E+001
 -0.34696584E+001 -0.72267638E+000  0.11312563E+003
 -0.20138543E+002  0.10294557E+001  0.10118237E+003
 -0.34298447E+002 -0.26512161E+001  0.88924282E+002
 -0.46083545E+002 -0.52925509E+001  0.76596090E+002
 -0.52036004E+002 -0.65041866E+001  0.64314580E+002
 -0.52047607E+002 -0.64697576E+001  0.52032137E+002
 -0.46093716E+002 -0.51686811E+001  0.39750806E+002
 -0.34319000E+002 -0.23280945E+001  0.27423520E+002
 -0.20172524E+002  0.11130022E+001  0.15218632E+002
  0.12087426E+000  0.44354061E+001  0.30321447E+001
 -0.33341343E+001 -0.64931108E+000  0.11312618E+003
 -0.19951372E+002  0.14090585E+001  0.10116759E+003
 -0.34173901E+002 -0.20065481E+001  0.88895187E+002
 -0.46024667E+002 -0.44242829E+001  0.76577957E+002
 -0.52012731E+002 -0.55210544E+001  0.64298754E+002
 -0.52022709E+002 -0.54845533E+001  0.52012014E+002
 -0.46033681E+002 -0.42972049E+001  0.39732834E+002
 -0.34188538E+002 -0.16833626E+001  0.27421541E+002
 -0.19979413E+002  0.14945827E+001  0.15218868E+002
  0.36986356E+000  0.44457789E+001  0.30357712E+001
 -0.31951687E+001 -0.57398645E+000  0.11312620E+003
 -0.19756496E+002  0.17873172E+001  0.10113032E+003
 -0.34031984E+002 -0.13637642E+001  0.88864135E+002
 -0.45948803E+002 -0.35581410E+001  0.76564576E+002
 -0.51951003E+002 -0.45396317E+001  0.64281513E+002
 -0.51959780E+002 -0.45011467E+001  0.51997171E+002
 -0.45954025E+002 -0.34278175E+001  0.39715812E+002
 -0.34040228E+002 -0.10402208E+001  0.27425022E+002
 -0.19781087E+002  0.18740746E+001  0.15214837E+002
  0.61933124E+000  0.44548137E+001  0.30393318E+001
 -0.30524084E+001 -0.49749275E+000  0.11312872E+003
 -0.19567620E+002  0.21638464E+001  0.10111224E+003
 -0.33868839E+002 -0.72302795E+000  0.88827334E+002
 -0.45845193E+002 -0.26937571E+001  0.76547356E+002
 -0.51856550E+002 -0.35615840E+001  0.64265730E+002
 -0.51863744E+002 -0.35213129E+001  0.51985163E+002
 -0.45847375E+002 -0.25602685E+001  0.39706197E+002
 -0.33875721E+002 -0.39872283E+000  0.27433423E+002
 -0.19581241E+002  0.22522086E+001  0.15202870E+002
  0.86938191E+000  0.44626421E+001  0.30426559E+001
 -0.29055567E+001 -0.41988750E+000  0.11313018E+003
 -0.19353881E+002  0.25394780E+001  0.10106152E+003
 -0.33690277E+002 -0.84794359E-001  0.88790890E+002
 -0.45714629E+002 -0.18319242E+001  0.76527149E+002
 -0.51726004E+002 -0.25877647E+001  0.64249065E+002
 -0.51735125E+002 -0.25459929E+001  0.51978466E+002
 -0.45708766E+002 -0.16953464E+001  0.39709071E+002
 -0.33695503E+002  0.24066537E+000  0.27445180E+002
 -0.19361572E+002  0.26296992E+001  0.15211432E+002
  0.11200785E+001  0.44689042E+001  0.30461662E+001
 -0.27543825E+001 -0.34124407E+000  0.11313190E+003
 -0.19131196E+002  0.29134087E+001  0.10102049E+003
 -0.33497839E+002  0.55113910E+000  0.88756807E+002
 -0.45553888E+002 -0.97314913E+000  0.76499596E+002
 -0.51571987E+002 -0.16185268E+001  0.64232973E+002
 -0.51575881E+002 -0.15754497E+001  0.51976424E+002
 -0.45547612E+002 -0.83378292E+000  0.39717030E+002
 -0.33501335E+002  0.87788685E+000  0.27460168E+002
 -0.19134467E+002  0.30055085E+001  0.15220018E+002
  0.13717007E+001  0.44748568E+001  0.30478882E+001
 -0.25987004E+001 -0.26169556E+000  0.11313339E+003
 -0.18901108E+002  0.32870643E+001  0.10098431E+003
 -0.33292704E+002  0.11847981E+001  0.88726125E+002
 -0.45373814E+002 -0.11743579E+000  0.76473618E+002
 -0.51393674E+002 -0.65287565E+000  0.64218633E+002
 -0.51396032E+002 -0.60899302E+000  0.51977258E+002
 -0.45367937E+002  0.24345335E-001  0.39727939E+002
 -0.33294561E+002  0.15128517E+001  0.27475975E+002
 -0.18900662E+002  0.33798790E+001  0.15225610E+002
  0.16235094E+001  0.44792405E+001  0.30503236E+001
 -0.24382411E+001 -0.18148767E+000  0.11313394E+003
 -0.18662127E+002  0.36585142E+001  0.10095130E+003
 -0.33075359E+002  0.18161606E+001  0.88700404E+002
 -0.45173264E+002  0.73496425E+000  0.76449788E+002
 -0.51201293E+002  0.30978433E+000  0.64207962E+002
 -0.51202377E+002  0.35399099E+000  0.51979817E+002
 -0.45168920E+002  0.87882796E+000  0.39741885E+002
 -0.33076605E+002  0.21454580E+001  0.27491258E+002
 -0.18659428E+002  0.37519736E+001  0.15227527E+002
  0.18754715E+001  0.44821740E+001  0.30533750E+001
 -0.22726963E+001 -0.10081352E+000  0.11313345E+003
 -0.18417410E+002  0.40283662E+001  0.10090938E+003
 -0.32850453E+002  0.24456619E+001  0.88683116E+002
 -0.44959589E+002  0.15843986E+001  0.76431904E+002
 -0.50989470E+002  0.12690361E+001  0.64199207E+002
 -0.50989893E+002  0.13132114E+001  0.51985297E+002
 -0.44956793E+002  0.17296965E+001  0.39754974E+002
 -0.32865042E+002  0.27777739E+001  0.27487181E+002
 -0.18412108E+002  0.41225300E+001  0.15239591E+002
  0.21273825E+001  0.44841666E+001  0.30549203E+001
 -0.21029976E+001 -0.19903361E-001  0.11313231E+003
 -0.18166032E+002  0.43982806E+001  0.10088664E+003
 -0.32633757E+002  0.30765862E+001  0.88689967E+002
 -0.44735273E+002  0.24319779E+001  0.76419613E+002
 -0.50770579E+002  0.22265614E+001  0.64194596E+002
 -0.50769898E+002  0.22705211E+001  0.51989268E+002
 -0.44732121E+002  0.25777377E+001  0.39765512E+002
 -0.32635026E+002  0.34073074E+001  0.27488900E+002
 -0.18157959E+002  0.44913280E+001  0.15246530E+002
  0.23791617E+001  0.44847258E+001  0.30568747E+001
  0.22141780E+000  0.50720621E-001  0.11318103E+003
  0.55724455E+001  0.19823814E+002  0.10080498E+003
  0.94223832E+001  0.33920466E+002  0.88720479E+002
  0.12671939E+002  0.45683818E+002  0.76547392E+002
  0.14246757E+002  0.51368669E+002  0.64215679E+002
  0.14242464E+002  0.51292789E+002  0.51952779E+002
  0.12656883E+002  0.45540944E+002  0.39657461E+002
  0.94089472E+001  0.33845166E+002  0.27410991E+002
  0.55072578E+001  0.19800518E+002  0.15263439E+002
  0.17493235E-003  0.44503414E-004  0.30001853E+001
  0.33667838E+001 -0.31674185E+001  0.11319696E+003
  0.98011421E+001  0.18564448E+002  0.10079624E+003
  0.12408041E+002  0.33098040E+002  0.88712698E+002
  0.15045233E+002  0.45053895E+002  0.76545287E+002
  0.16419378E+002  0.50761837E+002  0.64215536E+002
  0.16453661E+002  0.50661176E+002  0.51952405E+002
  0.15165675E+002  0.44857218E+002  0.39656665E+002
  0.12711808E+002  0.32936337E+002  0.27411080E+002
  0.98395458E+001  0.18583439E+002  0.15263965E+002
  0.43351110E+001 -0.12070071E+001  0.30370109E+001
  0.34806532E+001 -0.32263640E+001  0.11318874E+003
  0.10303482E+002  0.18378756E+002  0.10077710E+003
  0.13172782E+002  0.32866127E+002  0.88708796E+002
  0.16024934E+002  0.44772691E+002  0.76543993E+002
  0.17500236E+002  0.50450797E+002  0.64214694E+002
  0.17532160E+002  0.50347817E+002  0.51954220E+002
  0.16140940E+002  0.44571306E+002  0.39659750E+002
  0.13473252E+002  0.32698146E+002  0.27415255E+002
  0.10342503E+002  0.18398127E+002  0.15269329E+002
  0.44831627E+001 -0.12845739E+001  0.30441296E+001
[...]
CELL_DATA 2646
SCALARS Gamma double
LOOKUP_TABLE default
 -0.43717779E+001
  0.43717779E+001
 -0.15948730E+003
  0.15511552E+003
 -0.14311811E+003
 -0.16369190E+002
 -0.11562470E+003
 -0.27493409E+002
 -0.10375523E+003
 -0.11869471E+002
 -0.96410672E+002
 -0.73445539E+001
 -0.11037195E+003
  0.13961279E+002
 -0.14460549E+003
  0.34233537E+002
 -0.64797885E+002
 -0.79807603E+002
 -0.64797885E+002
  0.00000000E+000
  0.43717779E+001
  0.00000000E+000
  0.15511552E+003
  0.00000000E+000
 -0.16369190E+002
  0.00000000E+000
 -0.27493409E+002
  0.00000000E+000
 -0.11869471E+002
  0.00000000E+000
 -0.73445539E+001
  0.00000000E+000
  0.13961279E+002
  0.00000000E+000
  0.34233537E+002
  0.00000000E+000
 -0.79807603E+002
 -0.64797885E+002
 -0.35676620E+000
  0.47285441E+001
 -0.96432542E+000
  0.15572308E+003
 -0.10733176E+001
 -0.16260198E+002
 -0.10907421E+001
 -0.27475984E+002
 -0.12538824E+001
 -0.11706331E+002
 -0.12882334E+001
 -0.73102029E+001
 -0.13332696E+001
  0.14006315E+002
 -0.11554875E+001
  0.34055755E+002
 -0.24028229E+001
 -0.78560268E+002
 -0.67200707E+002
 -0.13745155E+000
  0.48659957E+001
 -0.55263701E+000
  0.15613826E+003
  0.70155900E-001
 -0.16882991E+002
 -0.23672779E+001
 -0.25038550E+002
 -0.51899116E+001
 -0.88836971E+001
 -0.51982565E+001
 -0.73018580E+001
 -0.39157700E+001
  0.12723829E+002
 -0.21037404E+001
  0.32243725E+002
 -0.22148052E+001
 -0.78449203E+002
 -0.69415513E+002
 -0.14351985E+000
  0.50095155E+001
 -0.44288301E+000
  0.15643763E+003
  0.19745549E+000
 -0.17523329E+002
 -0.24051006E+001
 -0.22435994E+002
 -0.49591754E+001
 -0.63296223E+001
 -0.52127925E+001
 -0.70482410E+001
 -0.32331920E+001
  0.10744228E+002
 -0.20389841E+001
  0.31049517E+002
 -0.22450642E+001
 -0.78243123E+002
 -0.71660577E+002
 -0.13997529E+000
  0.51494908E+001
 -0.92830764E-001
  0.15639048E+003
  0.52297140E+000
 -0.18139131E+002
 -0.23503403E+001
 -0.19562683E+002
 -0.39115262E+001
 -0.47684364E+001
 -0.50048418E+001
 -0.59549254E+001
 -0.29758320E+001
  0.87152186E+001
 -0.17509083E+001
  0.29824593E+002
 -0.21431196E+001
 -0.77850912E+002
 -0.73803696E+002
  0.14837073E-001
  0.51346537E+001
  0.48806848E+001
  0.15152463E+003
  0.49326920E+001
 -0.18191138E+002
  0.12062066E+001
 -0.15836197E+002
 -0.13701543E+000
 -0.34252144E+001
 -0.79400306E+000
 -0.52979378E+001
  0.88270414E+000
  0.70385114E+001
  0.29489499E+001
  0.27758347E+002
  0.14956181E+000
 -0.75051524E+002
 -0.73654135E+002
  0.47592712E+000
  0.46587266E+001
  0.18303795E+002
  0.13369677E+003
  0.16748446E+002
 -0.16635789E+002
  0.12128025E+002
 -0.11215776E+002
  0.10640676E+002
 -0.19378658E+001
  0.10099609E+002
 -0.47568714E+001
  0.11731022E+002
  0.54070988E+001
  0.15972660E+002
  0.23516710E+002
  0.67350539E+001
 -0.65813918E+002
 -0.66919081E+002
  0.83211125E+000
  0.38266154E+001
  0.27867914E+002
  0.10666096E+003
  0.24918373E+002
 -0.13686248E+002
  0.20471167E+002
 -0.67685699E+001
  0.18877183E+002
 -0.34388132E+000
  0.18315604E+002
 -0.41952929E+001
  0.19841319E+002
  0.38813838E+001
  0.25575396E+002
  0.17782634E+002
  0.12482756E+002
 -0.52721278E+002
 -0.54436325E+002
  0.99235881E+000
  0.28342566E+001
  0.31099255E+002
  0.76554066E+002
  0.27415886E+002
 -0.10002878E+002
  0.23975277E+002
 -0.33279609E+001
  0.23038709E+002
  0.59268608E+000
  0.22064967E+002
 -0.32215504E+001
  0.23517145E+002
  0.24292057E+001
  0.29201645E+002
  0.12098133E+002
  0.14721714E+002
 -0.38241348E+002
 -0.39714610E+002
  0.10427003E+001
  0.17915563E+001
  0.30769127E+002
  0.46827639E+002
  0.26983230E+002
 -0.62169816E+001
  0.24776825E+002
 -0.11215561E+001
  0.24504431E+002
  0.86508056E+000
  0.23208485E+002
 -0.19256050E+001
  0.24544431E+002
  0.10932602E+001
  0.29638113E+002
  0.70044515E+001
  0.14999923E+002
 -0.23603158E+002
 -0.24714688E+002
  0.97299534E+000
  0.81856091E+000
  0.27077488E+002
  0.20723147E+002
  0.23657597E+002
 -0.27970910E+001
  0.22649332E+002
 -0.11329133E+000
  0.22929610E+002
  0.58480337E+000
  0.21802107E+002
 -0.79810264E+000
  0.22590109E+002
  0.30525857E+000
  0.26662817E+002
  0.29317436E+001
  0.13579584E+002
 -0.10519925E+002
 -0.11135103E+002
  0.64872544E+000
  0.16983547E+000
  0.17225887E+002
  0.41459856E+001
  0.14985761E+002
 -0.55696483E+000
  0.14823631E+002
  0.48838483E-001
  0.15253043E+002
  0.15539132E+000
  0.14596251E+002
 -0.14131106E+000
  0.14877618E+002
  0.23892066E-001
  0.17257262E+002
  0.55209979E+000
  0.88586096E+001
 -0.21212729E+001
 -0.22764939E+001
  0.16779964E+000
  0.20358333E-002
  0.42656912E+001
  0.48093971E-001
  0.37150864E+001
 -0.63599538E-002
  0.37625785E+001
  0.13463489E-002
  0.39157448E+001
  0.22250323E-002
  0.37758405E+001
 -0.14067937E-002
  0.37998844E+001
 -0.15175484E-003
  0.43459621E+001
  0.60219938E-002
  0.22494345E+001
 -0.24745317E-001
 -0.27059359E-001
  0.20358333E-002
  0.00000000E+000
  0.00000000E+000
  0.50129804E-001
 -0.00000000E+000
  0.00000000E+000
  0.43769850E-001
 -0.00000000E+000
  0.00000000E+000
  0.45116199E-001
 -0.00000000E+000
  0.00000000E+000
  0.47341231E-001
 -0.00000000E+000
  0.00000000E+000
  0.45934438E-001
 -0.00000000E+000
  0.00000000E+000
  0.45782683E-001
 -0.00000000E+000
  0.00000000E+000
  0.51804677E-001
 -0.00000000E+000
  0.00000000E+000
  0.27059359E-001
 -0.00000000E+000
  0.00000000E+000
 -0.00000000E+000
  0.11145705E+003
 -0.11145705E+003
  0.49363463E+002
  0.62093587E+002
  0.17093481E+002
  0.32269982E+002
  0.23309121E+002
 -0.62156399E+001
  0.45241010E+002
 -0.21931890E+002
  0.38508614E+002
  0.67323968E+001
  0.26038023E+002
  0.12470590E+002
  0.37424747E+002
 -0.11386724E+002
  0.45219225E+002
 -0.77944774E+001
  0.45219225E+002
  0.00000000E+000
 -0.11145705E+003
  0.00000000E+000
  0.62093587E+002
  0.00000000E+000
  0.32269982E+002
  0.00000000E+000
 -0.62156399E+001
  0.00000000E+000
 -0.21931890E+002
  0.00000000E+000
  0.67323968E+001
  0.00000000E+000
  0.12470590E+002
  0.00000000E+000
 -0.11386724E+002
  0.00000000E+000
 -0.77944774E+001
  0.45219225E+002
  0.98359133E+000
 -0.11244064E+003
  0.30411248E+001
  0.60036054E+002
  0.24630350E+001
  0.32848072E+002
  0.26392380E+001
 -0.63918429E+001
  0.27706452E+001
 -0.22063297E+002
  0.28057267E+001
  0.66973153E+001
  0.27885498E+001
  0.12487767E+002
  0.32081611E+001
 -0.11806335E+002
  0.28636846E+001
 -0.74500009E+001
  0.48082909E+002
  0.12841358E+001
 -0.11372478E+003
  0.10218390E+001
  0.60298351E+002
  0.66857243E+000
  0.33201339E+002
  0.27242815E+001
 -0.84475520E+001
  0.31058736E+001
 -0.22444889E+002
  0.26295671E+001
  0.71736217E+001
  0.19304997E+001
  0.13186835E+002
  0.26616870E+001
 -0.12537523E+002
  0.26972408E+001
 -0.74855547E+001
  0.50780150E+002
  0.11519653E+001
 -0.11487674E+003
  0.10830052E+001
  0.60367311E+002
  0.10138338E+001
  0.33270510E+002
  0.29061155E+001
 -0.10339834E+002
  0.30168516E+001
 -0.22555625E+002
  0.25732902E+001
  0.76171830E+001
  0.20742879E+001
  0.13685837E+002
  0.28322246E+001
 -0.13295459E+002
  0.27283583E+001
 -0.73816885E+001
  0.53508508E+002
  0.62716214E+000
 -0.11550391E+003
  0.10896381E+001
  0.59904835E+002
  0.13834750E+001
  0.32976673E+002
  0.30181911E+001
 -0.11974550E+002
  0.27747242E+001
 -0.22312158E+002
  0.24218867E+001
  0.79700206E+001
  0.21885717E+001
  0.13919152E+002
  0.29364170E+001
 -0.14043304E+002
  0.26655115E+001
 -0.71107830E+001
  0.56174020E+002
 -0.28959937E+001
 -0.11260791E+003
 -0.48009835E+000
  0.57488939E+002
  0.10877219E+001
  0.31408853E+002
  0.19778335E+001
 -0.12864662E+002
  0.71827404E+000
 -0.21052598E+002
  0.73400206E+000
  0.79542925E+001
  0.12293416E+001
  0.13423813E+002
  0.15715189E+001
 -0.14385482E+002
  0.92866735E+000
 -0.64679314E+001
  0.57102687E+002
 -0.12602314E+002
 -0.10000560E+003
 -0.52290479E+001
  0.50115674E+002
 -0.75883078E+000
  0.26938636E+002
 -0.15209807E+001
 -0.12102512E+002
 -0.48403114E+001
 -0.17733268E+002
 -0.39698689E+001
  0.70838501E+001
 -0.20334040E+001
  0.11487348E+002
 -0.30433522E+001
 -0.13375534E+002
 -0.43170140E+001
 -0.51942696E+001
  0.52785673E+002
 -0.19765346E+002
 -0.80240252E+002
 -0.88862138E+001
  0.39236541E+002
 -0.26267096E+001
  0.20679132E+002
 -0.48235155E+001
 -0.99057057E+001
 -0.93638934E+001
 -0.13192890E+002
 -0.78432373E+001
  0.55631940E+001
 -0.49671768E+001
  0.86112870E+001
 -0.71011572E+001
 -0.11241553E+002
 -0.86556926E+001
 -0.36397342E+001
  0.44129981E+002
 -0.22240400E+002
 -0.57999852E+002
 -0.10510455E+002
  0.27506596E+002
 -0.39498849E+001
  0.14118562E+002
 -0.68456066E+001
 -0.70099840E+001
 -0.11448451E+002
 -0.85900453E+001
 -0.96926403E+001
  0.38073832E+001
 -0.66721349E+001
  0.55907816E+001
 -0.94491412E+001
 -0.84645468E+001
 -0.10904937E+002
 -0.21839384E+001
  0.33225043E+002
 -0.22238158E+002
 -0.35761694E+002
 -0.11071798E+002
  0.16340236E+002
 -0.50772428E+001
  0.81240071E+001
 -0.80530541E+001
 -0.40341727E+001
 -0.12045193E+002
 -0.45979064E+001
 -0.10367287E+002
  0.21294770E+001
 -0.77188607E+001
  0.29423555E+001
 -0.10764720E+002
 -0.54186876E+001
 -0.11897044E+002
 -0.10516144E+001
  0.21328000E+002
 -0.19801747E+002
 -0.15959946E+002
 -0.10431548E+002
  0.69700364E+001
 -0.56400549E+001
  0.33325139E+001
 -0.81041948E+001
 -0.15700328E+001
 -0.11011162E+002
 -0.16909396E+001
 -0.96864267E+001
  0.80474206E+000
 -0.77734533E+001
  0.10293821E+001
 -0.10713530E+002
 -0.24786105E+001
 -0.11444404E+002
 -0.32074043E+000
  0.98835952E+001
 -0.12734296E+002
 -0.32256505E+001
 -0.70919756E+001
  0.13277161E+001
 -0.43707978E+001
  0.61133605E+000
 -0.56838027E+001
 -0.25702784E+000
 -0.71110926E+001
 -0.26364967E+000
 -0.64318326E+001
  0.12548201E+000
 -0.55503317E+001
  0.14788120E+000
 -0.75239556E+001
 -0.50498659E+000
 -0.78048641E+001
 -0.39831881E-001
  0.20787311E+001
 -0.31878192E+001
 -0.37831218E-001
 -0.18745597E+001
  0.14456477E-001
 -0.12697514E+001
  0.65277625E-002
 -0.15248765E+001
 -0.19027177E-002
 -0.17864326E+001
 -0.20935815E-002
 -0.16619089E+001
  0.95830135E-003
 -0.15148379E+001
  0.81028700E-003
 -0.20138719E+001
 -0.59526030E-002
 -0.20534908E+001
 -0.21301071E-003
  0.25240302E-001
 -0.37831218E-001
 -0.00000000E+000
 -0.00000000E+000
 -0.23374740E-001
 -0.00000000E+000
 -0.00000000E+000
 -0.16846978E-001
 -0.00000000E+000
 -0.00000000E+000
 -0.18749696E-001
 -0.00000000E+000
 -0.00000000E+000
 -0.20843277E-001
 -0.00000000E+000
 -0.00000000E+000
 -0.19884976E-001
 -0.00000000E+000
 -0.00000000E+000
 -0.19074689E-001
 -0.00000000E+000
 -0.00000000E+000
 -0.25027292E-001
 -0.00000000E+000
 -0.00000000E+000
 -0.25240302E-001
 -0.00000000E+000
 -0.00000000E+000
  0.00000000E+000
  0.55765008E+002
 -0.55765008E+002
  0.10299465E+003
 -0.47229645E+002
  0.76268008E+002
  0.26726644E+002
  0.88950619E+002
 -0.12682611E+002
  0.10289328E+003
 -0.13942656E+002
  0.10215362E+003
  0.73965412E+000
  0.93347772E+002
  0.88058494E+001
  0.10773487E+003
 -0.14387100E+002
  0.31243287E+002
  0.76491585E+002
  0.31243287E+002
  0.00000000E+000
 -0.55765008E+002
  0.00000000E+000
 -0.47229645E+002
  0.00000000E+000
  0.26726644E+002
  0.00000000E+000
 -0.12682611E+002
  0.00000000E+000
 -0.13942656E+002
  0.00000000E+000
  0.73965412E+000
  0.00000000E+000
  0.88058494E+001
  0.00000000E+000
 -0.14387100E+002
  0.00000000E+000
  0.76491585E+002
  0.31243287E+002
 -0.11897703E+001
 -0.54575238E+002
 -0.16306323E+001
 -0.46788783E+002
 -0.15071749E+001
  0.26603187E+002
 -0.14282017E+001
 -0.12761584E+002
 -0.11261995E+001
 -0.14244659E+002
 -0.11509706E+001
  0.76442524E+000
 -0.15185570E+001
  0.91734358E+001
 -0.16859730E+001
 -0.14219684E+002
 -0.62707267E+000
  0.75432685E+002
  0.30616215E+002
 -0.14506000E+001
 -0.53124638E+002
 -0.18184543E+001
 -0.46420929E+002
 -0.22574240E+001
  0.27042157E+002
 -0.15816356E+001
 -0.13437372E+002
 -0.74850386E+000
 -0.15077790E+002
 -0.15677516E+001
  0.15836730E+001
 -0.19600528E+001
  0.95657370E+001
 -0.16559344E+001
 -0.14523803E+002
 -0.60607043E+000
  0.74382821E+002
  0.30010144E+002
 -0.14771720E+001
 -0.51647466E+002
 -0.18073547E+001
 -0.46090746E+002
 -0.20989389E+001
  0.27333741E+002
 -0.15466766E+001
 -0.13989635E+002
 -0.88625950E+000
 -0.15738207E+002
 -0.17799275E+001
  0.24773410E+001
 -0.19260392E+001
  0.97118486E+001
 -0.15893747E+001
 -0.14860467E+002
 -0.60316145E+000
  0.73396608E+002
  0.29406983E+002
 -0.15138546E+001
 -0.50133611E+002
 -0.19359266E+001
 -0.45668674E+002
 -0.20075771E+001
  0.27405391E+002
 -0.16190547E+001
 -0.14378157E+002
 -0.11653775E+001
 -0.16191885E+002
 -0.20317160E+001
  0.33436796E+001
 -0.20053873E+001
  0.96855198E+001
 -0.16678422E+001
 -0.15198012E+002
 -0.64603767E+000
  0.72374803E+002
  0.28760945E+002
 -0.30068415E+001
 -0.47126770E+002
 -0.47207272E+001
 -0.43954788E+002
 -0.37978442E+001
  0.26482508E+002
 -0.40482626E+001
 -0.14127739E+002
 -0.43459059E+001
 -0.15894241E+002
 -0.49767692E+001
  0.39745430E+001
 -0.44853409E+001
  0.91940915E+001
 -0.45649217E+001
 -0.15118432E+002
 -0.14880132E+001
  0.69297894E+002
  0.27272932E+002
 -0.68188349E+001
 -0.40307935E+002
 -0.12197779E+002
 -0.38575845E+002
 -0.88416361E+001
  0.23126366E+002
 -0.10544737E+002
 -0.12424638E+002
 -0.12610496E+002
 -0.13828482E+002
 -0.12536655E+002
  0.39007012E+001
 -0.11121388E+002
  0.77788247E+001
 -0.12527415E+002
 -0.13712404E+002
 -0.37148458E+001
  0.60485325E+002
  0.23558086E+002
 -0.91277294E+001
 -0.31180205E+002
 -0.17022088E+002
 -0.30681486E+002
 -0.12027814E+002
  0.18132092E+002
 -0.14779134E+002
 -0.96733181E+001
 -0.17931352E+002
 -0.10676264E+002
 -0.17347197E+002
  0.33165460E+001
 -0.15364989E+002
  0.57966173E+001
 -0.17791989E+002
 -0.11285405E+002
 -0.51326887E+001
  0.47826025E+002
  0.18425397E+002
 -0.94285308E+001
 -0.21751674E+002
 -0.18113224E+002
 -0.21996792E+002
 -0.12637587E+002
  0.12656455E+002
 -0.15700499E+002
 -0.66104064E+001
 -0.19124492E+002
 -0.72522709E+001
 -0.18240085E+002
  0.24321392E+001
 -0.16208555E+002
  0.37650876E+001
 -0.19134557E+002
 -0.83594026E+001
 -0.54301888E+001
  0.34121657E+002
  0.12995209E+002
 -0.88111280E+001
 -0.12940546E+002
 -0.17364621E+002
 -0.13443300E+002
 -0.12134860E+002
  0.74266936E+001
 -0.15020160E+002
 -0.37251056E+001
 -0.18202912E+002
 -0.40695191E+001
 -0.17222675E+002
  0.14519017E+001
 -0.15451635E+002
  0.19940483E+001
 -0.18533877E+002
 -0.52771613E+001
 -0.51786026E+001
  0.20766383E+002
  0.78166061E+001
 -0.73888130E+001
 -0.55517334E+001
 -0.14859403E+002
 -0.59727103E+001
 -0.10531808E+002
  0.30990986E+001
 -0.12815353E+002
 -0.14415602E+001
 -0.15308397E+002
 -0.15764755E+001
 -0.14442329E+002
  0.58583389E+000
 -0.13152417E+002
  0.70413672E+000
 -0.16048524E+002
 -0.23810543E+001
 -0.44178333E+001
  0.91356917E+001
  0.33987728E+001
 -0.44720828E+001
 -0.10796506E+001
 -0.92379513E+001
 -0.12068418E+001
 -0.67130300E+001
  0.57417728E+000
 -0.79160876E+001
 -0.23850265E+000
 -0.92326540E+001
 -0.25990912E+000
 -0.87457936E+001
  0.98973503E-001
 -0.81446344E+001
  0.10297754E+000
 -0.10049450E+002
 -0.47623825E+000
 -0.27284752E+001
  0.18147164E+001
  0.67029763E+000
 -0.10674822E+001
 -0.12168383E-001
 -0.22601309E+001
 -0.14193089E-001
 -0.16920466E+001
  0.60929708E-002
 -0.19286953E+001
 -0.18539712E-002
 -0.21864031E+001
 -0.22012529E-002
 -0.20882739E+001
  0.84422521E-003
 -0.19858451E+001
  0.54879671E-003
 -0.24566168E+001
 -0.54665826E-002
 -0.66265053E+000
  0.20750192E-001
  0.76470951E-002
 -0.12168383E-001
 -0.00000000E+000
 -0.00000000E+000
 -0.26361473E-001
 -0.00000000E+000
 -0.00000000E+000
 -0.20268502E-001
 -0.00000000E+000
 -0.00000000E+000
 -0.22122473E-001
 -0.00000000E+000
 -0.00000000E+000
 -0.24323726E-001
 -0.00000000E+000
 -0.00000000E+000
 -0.23479501E-001
 -0.00000000E+000
 -0.00000000E+000
 -0.22930704E-001
 -0.00000000E+000
 -0.00000000E+000
 -0.28397287E-001
 -0.00000000E+000
 -0.00000000E+000
 -0.76470951E-002
 -0.00000000E+000
 -0.00000000E+000
  0.00000000E+000
  0.42786584E+001
 -0.42786584E+001
  0.10725023E+001
  0.32061561E+001
  0.11287442E+001
 -0.56241885E-001
  0.70402299E+000
  0.42472117E+000
 -0.53660522E+000
  0.12406282E+001
 -0.12631234E+001
  0.72651822E+000
 -0.21211859E+001
  0.85806243E+000
 -0.29137304E+001
  0.79254452E+000
 -0.45091721E+001
  0.15954417E+001
 -0.45091721E+001
  0.00000000E+000
 -0.42786584E+001
  0.00000000E+000
  0.32061561E+001
  0.00000000E+000
 -0.56241885E-001
  0.00000000E+000
  0.42472117E+000
  0.00000000E+000
  0.12406282E+001
  0.00000000E+000
  0.72651822E+000
  0.00000000E+000
  0.85806243E+000
  0.00000000E+000
  0.79254452E+000
  0.00000000E+000
  0.15954417E+001
 -0.45091721E+001
 -0.85729859E+000
 -0.34213598E+001
  0.52543178E+000
  0.18234258E+001
 -0.11115976E+000
  0.58034965E+000
  0.85072573E-001
  0.22848885E+000
  0.44774409E-001
  0.12809264E+001
  0.73694716E-001
  0.69759791E+000
  0.10290646E+000
  0.82885068E+000
  0.12628350E+000
  0.76916748E+000
  0.16619370E+000
  0.15555315E+001
 -0.43429784E+001
 -0.66033936E+000
 -0.27610205E+001
  0.53374550E+000
  0.62934091E+000
 -0.81103740E-001
  0.11951989E+001
  0.21675721E-001
  0.12570938E+000
  0.49886267E-001
  0.12527158E+001
  0.87868862E-001
  0.65961531E+000
  0.14875498E+000
  0.76796456E+000
  0.20935904E+000
  0.70856343E+000
  0.28581897E+000
  0.14790716E+001
 -0.40571594E+001
 -0.56966877E+000
 -0.21913517E+001
  0.50327048E+000
 -0.44359834E+000
 -0.61338668E-001
  0.17598080E+001
  0.83262807E-002
  0.56044436E-001
  0.41607729E-001
  0.12194344E+001
  0.78239846E-001
  0.62298320E+000
  0.14002840E+000
  0.70617601E+000
  0.20317185E+000
  0.64541997E+000
  0.28336507E+000
  0.13988783E+001
 -0.37737943E+001
 -0.31499761E+000
 -0.18763541E+001
  0.41640248E+000
 -0.11749984E+001
 -0.24159889E-001
  0.22003704E+001
 -0.67634145E-002
  0.38647962E-001
  0.38102358E-001
  0.11745686E+001
  0.73807161E-001
  0.58727839E+000
  0.13787923E+000
  0.64210394E+000
  0.20458412E+000
  0.57871509E+000
  0.29232950E+000
  0.13111330E+001
 -0.34814648E+001
 -0.24670707E+000
 -0.16296470E+001
  0.17395061E+000
 -0.15956561E+001
 -0.41926253E-001
  0.24162473E+001
 -0.63482724E-001
  0.60204433E-001
  0.32319316E-001
  0.10787666E+001
  0.87746644E-001
  0.53185107E+000
  0.17351125E+000
  0.55633933E+000
  0.25865135E+000
  0.49357499E+000
  0.39225920E+000
  0.11775251E+001
 -0.30892056E+001
 -0.10570517E+001
 -0.57259528E+000
 -0.35038312E+000
 -0.23023247E+001
 -0.20086932E+000
  0.22667335E+001
 -0.18880066E+000
  0.48135774E-001
  0.17671221E-001
  0.87229468E+000
  0.12194670E+000
  0.42757559E+000
  0.24948669E+000
  0.42879934E+000
  0.36975895E+000
  0.37330273E+000
  0.58930042E+000
  0.95798365E+000
 -0.24999052E+001
 -0.99894903E+000
  0.42635375E+000
 -0.64478693E+000
 -0.26564868E+001
 -0.23838032E+000
  0.18603269E+001
 -0.21502493E+000
  0.24780382E-001
  0.31551424E-001
  0.62571833E+000
  0.15364677E+000
  0.30548024E+000
  0.28903656E+000
  0.29340954E+000
  0.41200876E+000
  0.25033053E+000
  0.66406051E+000
  0.70593190E+000
 -0.18358447E+001
 -0.26953729E+000
  0.69589104E+000
 -0.74847230E+000
 -0.21775518E+001
 -0.17123205E+000
  0.12830866E+001
 -0.17877234E+000
  0.32320669E-001
  0.49585216E-001
  0.39736077E+000
  0.15674226E+000
  0.19832320E+000
  0.27025338E+000
  0.17989843E+000
  0.37051212E+000
  0.15007179E+000
  0.60449651E+000
  0.47194751E+000
 -0.12313482E+001
  0.49003459E+000
  0.20585645E+000
 -0.72094390E+000
 -0.96657333E+000
 -0.10196453E+000
  0.66410724E+000
 -0.12279575E+000
  0.53151884E-001
  0.63897965E-001
  0.21066706E+000
  0.15246794E+000
  0.10975322E+000
  0.24066590E+000
  0.91700472E-001
  0.31558484E+000
  0.75152854E-001
  0.51858801E+000
  0.26894434E+000
 -0.71276020E+000
  0.22058251E+000
 -0.14726060E-001
 -0.50525433E+000
 -0.24073648E+000
 -0.71576945E-001
  0.23042985E+000
 -0.54497242E-001
  0.36072180E-001
  0.77342782E-001
  0.78827037E-001
  0.14351446E+000
  0.43581542E-001
  0.20182208E+000
  0.33392851E-001
  0.24991818E+000
  0.27056754E-001