# vtk DataFile Version 2.0
BldPointCP.BldB
ASCII
 
DATASET POLYDATA
POINTS 9 double
  0.48254903E+001  0.10406352E+002  0.10634427E+003
  0.11807653E+002  0.25513189E+002  0.94565901E+002
  0.17388588E+002  0.37569714E+002  0.82339113E+002
  0.21162851E+002  0.45721250E+002  0.70081641E+002
  0.22378831E+002  0.48349230E+002  0.58092013E+002
  0.21159034E+002  0.45713711E+002  0.46103682E+002
  0.17384579E+002  0.37560331E+002  0.33846019E+002
  0.11804729E+002  0.25506361E+002  0.21612800E+002
  0.48142983E+001  0.10401878E+002  0.98331401E+001
  
POINT_DATA 9
SCALARS Gamma_LL double
LOOKUP_TABLE default
  0.35858887E+002
  0.19308773E+002
  0.11990016E+002
  0.15452026E+002
  0.19182443E+002
  0.17409067E+002
  0.15124207E+002
  0.20535047E+002
  0.21345165E+002
VECTORS Vind_CP double
 -0.14306291E-001 -0.19373800E-001 -0.98025072E-001
 -0.14749214E-001 -0.22426858E-001 -0.35160294E-001
 -0.76956564E-002 -0.15776400E-001 -0.76343807E-002
 -0.19133806E-001 -0.51487512E-001 -0.15051712E-001
 -0.33987288E-001 -0.89823435E-001  0.28974066E-003
 -0.23777193E-001 -0.62575675E-001  0.21283787E-001
 -0.13344889E-001 -0.30983152E-001  0.20816850E-001
 -0.20367656E-001 -0.39853603E-001  0.44355443E-001
 -0.19956126E-001 -0.19040517E-001  0.54256163E-001
VECTORS Vtot_CP double
  0.35267982E+002 -0.89030053E+001  0.41011819E+000
  0.62759633E+002 -0.22225216E+002  0.14811106E+000
  0.84336519E+002 -0.32933293E+002 -0.62160714E+000
  0.99232508E+002 -0.39165884E+002 -0.40018204E+000
  0.10423255E+003 -0.40745967E+002  0.27218101E-001
  0.99427130E+002 -0.38716185E+002  0.35912058E+000
  0.84585815E+002 -0.32233206E+002  0.57855769E+000
  0.62990326E+002 -0.21779157E+002  0.15892317E+000
  0.35926709E+002 -0.87028627E+001 -0.12983942E+000
VECTORS Vstr_CP double
 -0.18082288E+002  0.88836315E+001 -0.50814326E+000
 -0.45574382E+002  0.22202789E+002 -0.18327135E+000
 -0.67144215E+002  0.32917517E+002  0.61397276E+000
 -0.82051642E+002  0.39114396E+002  0.38513032E+000
 -0.87066540E+002  0.40656144E+002 -0.26928360E-001
 -0.82250907E+002  0.38653609E+002 -0.33783680E+000
 -0.67399160E+002  0.32202223E+002 -0.55774084E+000
 -0.45810694E+002  0.21739303E+002 -0.11456773E+000
 -0.18746665E+002  0.86838222E+001  0.18409558E+000
VECTORS Vwnd_CP double
  0.17200000E+002  0.00000000E+000  0.00000000E+000
  0.17200000E+002  0.00000000E+000  0.00000000E+000
  0.17200000E+002  0.00000000E+000  0.00000000E+000
  0.17200000E+002  0.00000000E+000  0.00000000E+000
  0.17200000E+002  0.00000000E+000  0.00000000E+000
  0.17200000E+002  0.00000000E+000  0.00000000E+000
  0.17200000E+002  0.00000000E+000  0.00000000E+000
  0.17200000E+002  0.00000000E+000  0.00000000E+000
  0.17200000E+002  0.00000000E+000  0.00000000E+000
VECTORS Tangent double
  0.76550991E+000 -0.64342409E+000  0.13323988E-003
  0.90702042E+000 -0.42108661E+000  0.13481141E-003
  0.90795071E+000 -0.41907689E+000  0.25158237E-003
  0.90779793E+000 -0.41940780E+000  0.11991963E-003
  0.90745523E+000 -0.42014878E+000 -0.53252305E-004
  0.90777295E+000 -0.41946184E+000 -0.20628926E-003
  0.90782706E+000 -0.41934476E+000 -0.75595171E-004
  0.90740738E+000 -0.42025211E+000  0.50570329E-004
  0.90739173E+000 -0.42028541E+000  0.64530756E-003
VECTORS Normal double
  0.33839416E+000  0.40277851E+000  0.85044627E+000
  0.27096671E+000  0.58390721E+000  0.76526428E+000
  0.29727027E+000  0.64447359E+000  0.70447440E+000
  0.37595035E+000  0.81386203E+000  0.44304619E+000
  0.42014871E+000  0.90745513E+000 -0.49530819E-003
  0.37588707E+000  0.81368923E+000 -0.44341712E+000
  0.29763446E+000  0.64446699E+000 -0.70432665E+000
  0.27072734E+000  0.58446181E+000 -0.76492555E+000
  0.21571651E+000  0.46441082E+000 -0.85894644E+000
VECTORS Orth double
  0.54725129E+000  0.65097996E+000 -0.52606190E+000
  0.32232126E+000  0.69407380E+000 -0.64371622E+000
  0.29539108E+000  0.63955324E+000 -0.70972936E+000
  0.18591462E+000  0.40215133E+000 -0.89649878E+000
 -0.25642721E-003 -0.42709612E-003 -0.99999988E+000
 -0.18616442E+000 -0.40244452E+000 -0.89631535E+000
 -0.29540441E+000 -0.63938429E+000 -0.70987602E+000
 -0.32143202E+000 -0.69411279E+000 -0.64411870E+000
 -0.36070297E+000 -0.77954010E+000 -0.51206504E+000
