# vtk DataFile Version 2.0
BldPointCP.BldC
ASCII
 
DATASET POLYDATA
POINTS 9 double
  0.88383790E+001 -0.75264190E+001  0.10623826E+003
  0.21246488E+002 -0.18644565E+002  0.94458425E+002
  0.31259712E+002 -0.27557567E+002  0.82373860E+002
  0.37964534E+002 -0.33455250E+002  0.70125773E+002
  0.40046082E+002 -0.35211883E+002  0.58076112E+002
  0.37884546E+002 -0.33243092E+002  0.46053265E+002
  0.31165165E+002 -0.27352332E+002  0.33776734E+002
  0.21135631E+002 -0.18580244E+002  0.21588565E+002
  0.86043800E+001 -0.75717287E+001  0.98430780E+001
  
POINT_DATA 9
SCALARS Gamma_LL double
LOOKUP_TABLE default
  0.61395163E+002
  0.10997389E+003
  0.86227306E+002
  0.95900615E+002
  0.10540969E+003
  0.10683968E+003
  0.10103747E+003
  0.11447776E+003
  0.33349510E+002
VECTORS Vind_CP double
 -0.16759021E+000 -0.27501722E+000 -0.45175267E+000
 -0.21165794E+000  0.16649057E+000 -0.34040781E+000
 -0.32948135E+000  0.27589091E+000 -0.26588249E+000
 -0.68669981E+000  0.53100403E+000 -0.22449627E+000
 -0.95625714E+000  0.68274454E+000  0.24146824E-001
 -0.79061305E+000  0.61223748E+000  0.30937085E+000
 -0.43859693E+000  0.36113334E+000  0.37382505E+000
 -0.31965225E+000  0.23847339E+000  0.38088754E+000
 -0.10739081E+000 -0.34804932E-001  0.64599121E-001
VECTORS Vtot_CP double
  0.75725564E+000 -0.16519176E+002  0.58380969E+000
 -0.18782348E+002 -0.37832207E+002  0.10921358E+001
 -0.35214839E+002 -0.54662089E+002  0.13904828E+000
 -0.45780307E+002 -0.66640814E+002 -0.73951628E-001
 -0.48375236E+002 -0.71508014E+002  0.52263732E+000
 -0.44589955E+002 -0.68316579E+002  0.97039253E+000
 -0.33714904E+002 -0.56216845E+002  0.10820293E+001
 -0.17225575E+002 -0.38061904E+002  0.68090938E+000
  0.33433474E+001 -0.15649975E+002  0.45436967E-001
VECTORS Vstr_CP double
  0.16275154E+002  0.16244159E+002 -0.10355624E+001
  0.35770690E+002  0.37998698E+002 -0.14325436E+001
  0.52085357E+002  0.54937980E+002 -0.40493077E+000
  0.62293608E+002  0.67171818E+002 -0.15054464E+000
  0.64618979E+002  0.72190759E+002 -0.49849050E+000
  0.60999342E+002  0.68928816E+002 -0.66102169E+000
  0.50476307E+002  0.56577978E+002 -0.70820421E+000
  0.34105923E+002  0.38300378E+002 -0.30002184E+000
  0.13749262E+002  0.15615170E+002  0.19162154E-001
VECTORS Vwnd_CP double
  0.17200000E+002  0.00000000E+000  0.00000000E+000
  0.17200000E+002  0.00000000E+000  0.00000000E+000
  0.17200000E+002  0.00000000E+000  0.00000000E+000
  0.17200000E+002  0.00000000E+000  0.00000000E+000
  0.17200000E+002  0.00000000E+000  0.00000000E+000
  0.17200000E+002  0.00000000E+000  0.00000000E+000
  0.17200000E+002  0.00000000E+000  0.00000000E+000
  0.17200000E+002  0.00000000E+000  0.00000000E+000
  0.17200000E+002  0.00000000E+000  0.00000000E+000
VECTORS Tangent double
 -0.43190215E+000 -0.90191996E+000 -0.96152651E-003
 -0.65531591E+000 -0.75532902E+000  0.62558109E-002
 -0.67152177E+000 -0.74097306E+000  0.41767500E-002
 -0.67052061E+000 -0.74189052E+000 -0.75347530E-003
 -0.66310202E+000 -0.74852902E+000 -0.14312705E-003
 -0.66481392E+000 -0.74700839E+000  0.96097991E-003
 -0.66548123E+000 -0.74641401E+000  0.92684953E-003
 -0.66053726E+000 -0.75079310E+000  0.49810287E-003
 -0.66002001E+000 -0.75122228E+000 -0.62182217E-002
VECTORS Normal double
  0.48259834E+000 -0.23200210E+000  0.84455543E+000
  0.48343435E+000 -0.41303046E+000  0.77181414E+000
  0.52252768E+000 -0.46953957E+000  0.71168632E+000
  0.67047431E+000 -0.60640879E+000  0.42747232E+000
  0.74847606E+000 -0.66305281E+000 -0.12023096E-001
  0.67209517E+000 -0.59870403E+000 -0.43570811E+000
  0.52885255E+000 -0.47238525E+000 -0.70510082E+000
  0.48010140E+000 -0.42289637E+000 -0.76854493E+000
  0.38862243E+000 -0.33433462E+000 -0.85859942E+000
VECTORS Orth double
  0.76194447E+000 -0.36430127E+000 -0.53546728E+000
  0.58038978E+000 -0.50880636E+000 -0.63581742E+000
  0.52537924E+000 -0.48009532E+000 -0.70248498E+000
  0.31759458E+000 -0.28612382E+000 -0.90402812E+000
 -0.89047352E-002  0.80796662E-002 -0.99992771E+000
 -0.32605296E+000  0.28901895E+000 -0.90008751E+000
 -0.52673496E+000  0.46874119E+000 -0.70910646E+000
 -0.57722888E+000  0.50741342E+000 -0.63979563E+000
 -0.64292005E+000  0.56910934E+000 -0.51260937E+000
