# vtk DataFile Version 2.0
BldPointCP.BldC
ASCII
 
DATASET POLYDATA
POINTS 9 double
  0.80042897E+001 -0.83001748E+001  0.10628848E+003
  0.19396253E+002 -0.20458466E+002  0.94520281E+002
  0.28555341E+002 -0.30178820E+002  0.82377494E+002
  0.34716400E+002 -0.36664073E+002  0.70118980E+002
  0.36667023E+002 -0.38676110E+002  0.58091153E+002
  0.34686128E+002 -0.36554070E+002  0.46079895E+002
  0.28518509E+002 -0.30061384E+002  0.33809907E+002
  0.19349938E+002 -0.20412972E+002  0.21603611E+002
  0.78832520E+001 -0.83197455E+001  0.98417516E+001
  
POINT_DATA 9
SCALARS Gamma_LL double
LOOKUP_TABLE default
  0.54305895E+002
  0.10120549E+003
  0.74047015E+002
  0.87386035E+002
  0.10216188E+003
  0.10080820E+003
  0.91425737E+002
  0.10610670E+003
  0.30638356E+002
VECTORS Vind_CP double
 -0.13108093E+000 -0.22103511E+000 -0.37044154E+000
 -0.14362782E+000  0.13521927E+000 -0.26720251E+000
 -0.19845470E+000  0.17814816E+000 -0.16275865E+000
 -0.47653063E+000  0.39466702E+000 -0.15569922E+000
 -0.70011506E+000  0.58825595E+000  0.13424015E-001
 -0.56410558E+000  0.47674409E+000  0.22338728E+000
 -0.28128271E+000  0.25661119E+000  0.25312960E+000
 -0.22581257E+000  0.19957813E+000  0.30220326E+000
 -0.82291398E-001 -0.58159891E-001  0.55844567E-001
VECTORS Vtot_CP double
 -0.15251443E-001 -0.14968292E+002  0.52796965E+000
 -0.21442881E+002 -0.34230556E+002  0.64590793E+000
 -0.39226641E+002 -0.49497134E+002 -0.48790934E+000
 -0.50629459E+002 -0.61019756E+002 -0.51373275E+000
 -0.53790734E+002 -0.65885195E+002  0.19706709E+000
 -0.50095211E+002 -0.62728978E+002  0.73077766E+000
 -0.38379143E+002 -0.51286784E+002  0.97644132E+000
 -0.20399838E+002 -0.34709207E+002  0.59654022E+000
  0.20385201E+001 -0.14344369E+002  0.44746586E-002
VECTORS Vstr_CP double
  0.17084171E+002  0.14747256E+002 -0.89841120E+000
  0.38499254E+002  0.34365775E+002 -0.91311044E+000
  0.56228186E+002  0.49675282E+002  0.32515069E+000
  0.67352928E+002  0.61414423E+002  0.35803354E+000
  0.70290619E+002  0.66473451E+002 -0.18364307E+000
  0.66731106E+002  0.63205722E+002 -0.50739039E+000
  0.55297861E+002  0.51543396E+002 -0.72331172E+000
  0.37374026E+002  0.34908785E+002 -0.29433696E+000
  0.15079188E+002  0.14286209E+002  0.51369908E-001
VECTORS Vwnd_CP double
  0.17200000E+002  0.00000000E+000  0.00000000E+000
  0.17200000E+002  0.00000000E+000  0.00000000E+000
  0.17200000E+002  0.00000000E+000  0.00000000E+000
  0.17200000E+002  0.00000000E+000  0.00000000E+000
  0.17200000E+002  0.00000000E+000  0.00000000E+000
  0.17200000E+002  0.00000000E+000  0.00000000E+000
  0.17200000E+002  0.00000000E+000  0.00000000E+000
  0.17200000E+002  0.00000000E+000  0.00000000E+000
  0.17200000E+002  0.00000000E+000  0.00000000E+000
VECTORS Tangent double
 -0.51524722E+000 -0.85704159E+000  0.14143168E-003
 -0.72361138E+000 -0.69019668E+000  0.38868675E-002
 -0.73267146E+000 -0.68057972E+000  0.19433460E-002
 -0.73061546E+000 -0.68278872E+000 -0.78315932E-003
 -0.72567481E+000 -0.68803777E+000 -0.31155327E-003
 -0.72738204E+000 -0.68623273E+000  0.58913833E-004
 -0.72863763E+000 -0.68489935E+000  0.29533560E-003
 -0.72558065E+000 -0.68813709E+000  0.26202273E-003
 -0.72515054E+000 -0.68857910E+000 -0.39385393E-002
VECTORS Normal double
  0.45532607E+000 -0.27359894E+000  0.84724364E+000
  0.44285343E+000 -0.45995927E+000  0.76962219E+000
  0.48151165E+000 -0.51634448E+000  0.70819129E+000
  0.61502782E+000 -0.65860546E+000  0.43356617E+000
  0.68802810E+000 -0.72566206E+000 -0.56484066E-002
  0.61673187E+000 -0.65375126E+000 -0.43846447E+000
  0.48562401E+000 -0.51694037E+000 -0.70494112E+000
  0.44133566E+000 -0.46564210E+000 -0.76707253E+000
  0.35538930E+000 -0.36935324E+000 -0.85864814E+000
VECTORS Orth double
  0.72608434E+000 -0.43660433E+000 -0.53120447E+000
  0.52940288E+000 -0.55862869E+000 -0.63848773E+000
  0.48097719E+000 -0.51980729E+000 -0.70601793E+000
  0.29654989E+000 -0.31628848E+000 -0.90112139E+000
 -0.36602347E-002  0.43132638E-002 -0.99998400E+000
 -0.30092718E+000  0.31889484E+000 -0.89874852E+000
 -0.48296638E+000  0.51350320E+000 -0.70926577E+000
 -0.52797307E+000  0.55645735E+000 -0.64156033E+000
 -0.58979245E+000  0.62404888E+000 -0.51255034E+000
