# vtk DataFile Version 2.0
BldPointCP.BldB
ASCII
 
DATASET POLYDATA
POINTS 9 double
  0.26686737E+001  0.11241939E+002  0.10625766E+003
  0.61237812E+001  0.27545342E+002  0.94491639E+002
  0.89338212E+001  0.40628588E+002  0.82387278E+002
  0.10826485E+002  0.49344513E+002  0.70124879E+002
  0.11428359E+002  0.52030450E+002  0.58080965E+002
  0.10829707E+002  0.49194425E+002  0.46058398E+002
  0.89250909E+001  0.40482724E+002  0.33769463E+002
  0.60635092E+001  0.27483231E+002  0.21576178E+002
  0.24704708E+001  0.11192513E+002  0.98390717E+001
  
POINT_DATA 9
SCALARS Gamma_LL double
LOOKUP_TABLE default
  0.10665458E+003
  0.46274973E+002
  0.16672871E+002
  0.16811243E+002
  0.36552909E+002
  0.31132059E+002
  0.21072827E+002
  0.30225049E+002
  0.37229799E+002
VECTORS Vind_CP double
 -0.17728006E-001 -0.11543843E+000 -0.46904281E+000
 -0.72180996E-001 -0.15948202E+000 -0.21826447E+000
 -0.47068589E-001 -0.10724803E+000 -0.45933644E-001
 -0.55082095E-001 -0.20119209E+000 -0.11064375E-001
 -0.91432440E-001 -0.40926056E+000  0.29443005E-001
 -0.10385310E+000 -0.36060593E+000  0.11002556E+000
 -0.72537392E-001 -0.20294476E+000  0.11854490E+000
 -0.60777854E-001 -0.18152087E+000  0.17126563E+000
 -0.11810329E+000 -0.67202493E-001  0.10928631E+000
VECTORS Vtot_CP double
  0.35036665E+002 -0.50476633E+001  0.18445374E+000
  0.65777124E+002 -0.11698934E+002  0.59491252E+000
  0.90382412E+002 -0.17590529E+002 -0.22643527E-002
  0.10672209E+003 -0.20897369E+002 -0.13570443E+000
  0.11166066E+003 -0.21245737E+002  0.14768363E+000
  0.10619389E+003 -0.19851290E+002  0.36402405E+000
  0.90141115E+002 -0.16542020E+002  0.53331486E+000
  0.66623981E+002 -0.11302922E+002  0.41588839E+000
  0.37244754E+002 -0.45199135E+001  0.12089405E+000
VECTORS Vstr_CP double
 -0.17854393E+002  0.49322249E+001 -0.65349655E+000
 -0.48649305E+002  0.11539452E+002 -0.81317700E+000
 -0.73229480E+002  0.17483281E+002 -0.43669291E-001
 -0.89577176E+002  0.20696176E+002  0.12464006E+000
 -0.94552092E+002  0.20836477E+002 -0.11824062E+000
 -0.89097746E+002  0.19490684E+002 -0.25399849E+000
 -0.73013652E+002  0.16339075E+002 -0.41476996E+000
 -0.49484759E+002  0.11121401E+002 -0.24462277E+000
 -0.20162858E+002  0.44527110E+001 -0.11607745E-001
VECTORS Vwnd_CP double
  0.17200000E+002  0.00000000E+000  0.00000000E+000
  0.17200000E+002  0.00000000E+000  0.00000000E+000
  0.17200000E+002  0.00000000E+000  0.00000000E+000
  0.17200000E+002  0.00000000E+000  0.00000000E+000
  0.17200000E+002  0.00000000E+000  0.00000000E+000
  0.17200000E+002  0.00000000E+000  0.00000000E+000
  0.17200000E+002  0.00000000E+000  0.00000000E+000
  0.17200000E+002  0.00000000E+000  0.00000000E+000
  0.17200000E+002  0.00000000E+000  0.00000000E+000
VECTORS Tangent double
  0.88018194E+000 -0.47463450E+000  0.13558906E-002
  0.97357421E+000 -0.22834559E+000 -0.33983643E-002
  0.97787396E+000 -0.20916848E+000 -0.33257602E-002
  0.97790999E+000 -0.20902292E+000 -0.12095542E-002
  0.97551942E+000 -0.21991315E+000 -0.25528415E-003
  0.97640917E+000 -0.21592823E+000 -0.36635113E-003
  0.97745850E+000 -0.21112756E+000 -0.19591235E-003
  0.97646320E+000 -0.21568406E+000  0.69714284E-004
  0.97613087E+000 -0.21711687E+000  0.53657996E-002
VECTORS Normal double
  0.25258733E+000  0.47082320E+000  0.84529590E+000
  0.14780034E+000  0.61867788E+000  0.77161697E+000
  0.14971039E+000  0.68862324E+000  0.70949618E+000
  0.18934728E+000  0.88337701E+000  0.42871047E+000
  0.21990298E+000  0.97548421E+000 -0.85578346E-002
  0.19426731E+000  0.87919848E+000 -0.43505200E+000
  0.14987151E+000  0.69451401E+000 -0.70369654E+000
  0.13795742E+000  0.62432401E+000 -0.76888704E+000
  0.11574778E+000  0.49916504E+000 -0.85874136E+000
VECTORS Orth double
  0.40184498E+000  0.74367170E+000 -0.53429674E+000
  0.17409284E+000  0.75172866E+000 -0.63607838E+000
  0.14611404E+000  0.69429574E+000 -0.70470143E+000
  0.88541823E-001  0.41946928E+000 -0.90344113E+000
 -0.21310061E-002 -0.82921961E-002 -0.99996335E+000
 -0.94262103E-001 -0.42471760E+000 -0.90040525E+000
 -0.14870579E+000 -0.68780480E+000 -0.71050063E+000
 -0.16579315E+000 -0.75079951E+000 -0.63938464E+000
 -0.18376881E+000 -0.83886503E+000 -0.51238120E+000
