# vtk DataFile Version 2.0
BldPointCP.BldA
ASCII
 
DATASET POLYDATA
POINTS 9 double
 -0.10949059E+002 -0.28514267E+001  0.10649283E+003
 -0.27140707E+002 -0.70823850E+001  0.94855543E+002
 -0.39918641E+002 -0.10479926E+002  0.82582018E+002
 -0.48491791E+002 -0.12795305E+002  0.70255504E+002
 -0.51275731E+002 -0.13559775E+002  0.58261104E+002
 -0.48500467E+002 -0.12819283E+002  0.46269245E+002
 -0.39919341E+002 -0.10493924E+002  0.33940958E+002
 -0.27178651E+002 -0.70874485E+001  0.21619821E+002
 -0.11093757E+002 -0.28824770E+001  0.98266013E+001
  
POINT_DATA 9
SCALARS Gamma_LL double
LOOKUP_TABLE default
 -0.43717779E+001
 -0.15948730E+003
 -0.14311811E+003
 -0.11562470E+003
 -0.10375523E+003
 -0.96410672E+002
 -0.11037195E+003
 -0.14460549E+003
 -0.64797885E+002
VECTORS Vind_CP double
  0.10652845E+000 -0.27378316E+000  0.11557829E+000
 -0.54216611E+000  0.19305299E-001  0.53343406E+000
 -0.76614482E+000 -0.31750952E-001  0.53667883E+000
 -0.99714489E+000 -0.10888469E+000  0.31028185E+000
 -0.10405988E+001 -0.15759284E+000  0.17664780E-001
 -0.86601581E+000 -0.10843622E+000 -0.21867788E+000
 -0.61960947E+000 -0.37147980E-001 -0.40055834E+000
 -0.54398149E+000 -0.22103951E-001 -0.51137728E+000
 -0.18804610E+000 -0.61670100E-002 -0.71182945E-001
VECTORS Vtot_CP double
  0.99908044E+001  0.19571335E+002 -0.15201826E+001
  0.28197554E+001  0.50076790E+002 -0.32213286E+001
 -0.41917892E+001  0.74220453E+002 -0.33252523E+001
 -0.10336119E+002  0.90647967E+002 -0.25931509E+001
 -0.12463361E+002  0.96173646E+002 -0.25254232E+001
 -0.10325498E+002  0.90769119E+002 -0.24721462E+001
 -0.43125769E+001  0.74139885E+002 -0.17114152E+001
  0.33090737E+001  0.49963390E+002 -0.83394957E+000
  0.11753598E+002  0.20243559E+002 -0.83032484E-001
VECTORS Vstr_CP double
  0.73157240E+001 -0.19845118E+002  0.16357609E+001
  0.13838078E+002 -0.50057485E+002  0.37547626E+001
  0.20625644E+002 -0.74252204E+002  0.38619311E+001
  0.26538974E+002 -0.90756852E+002  0.29034328E+001
  0.28622762E+002 -0.96331239E+002  0.25430880E+001
  0.26659482E+002 -0.90877555E+002  0.22534683E+001
  0.20892967E+002 -0.74177033E+002  0.13108568E+001
  0.13346945E+002 -0.49985494E+002  0.32257229E+000
  0.52583560E+001 -0.20249726E+002  0.11849538E-001
VECTORS Vwnd_CP double
  0.17200000E+002  0.00000000E+000  0.00000000E+000
  0.17200000E+002  0.00000000E+000  0.00000000E+000
  0.17200000E+002  0.00000000E+000  0.00000000E+000
  0.17200000E+002  0.00000000E+000  0.00000000E+000
  0.17200000E+002  0.00000000E+000  0.00000000E+000
  0.17200000E+002  0.00000000E+000  0.00000000E+000
  0.17200000E+002  0.00000000E+000  0.00000000E+000
  0.17200000E+002  0.00000000E+000  0.00000000E+000
  0.17200000E+002  0.00000000E+000  0.00000000E+000
VECTORS Tangent double
 -0.86783557E+000  0.49676770E+000 -0.91253525E-002
 -0.25658555E+000  0.96652150E+000 -0.22272924E-003
 -0.25403288E+000  0.96719464E+000 -0.13514214E-002
 -0.24344776E+000  0.96990945E+000 -0.29734534E-002
 -0.23892796E+000  0.97103729E+000 -0.55381907E-004
 -0.23916935E+000  0.97097717E+000  0.11683856E-002
 -0.24201157E+000  0.97027298E+000  0.85918977E-003
 -0.24562793E+000  0.96936378E+000  0.88762992E-003
 -0.24808249E+000  0.96873872E+000  0.60646353E-003
VECTORS Normal double
 -0.32103768E+000 -0.54663478E+000  0.77338556E+000
 -0.61963873E+000 -0.16432061E+000  0.76749370E+000
 -0.69500922E+000 -0.18157154E+000  0.69569675E+000
 -0.87121828E+000 -0.21732680E+000  0.44016788E+000
 -0.97103654E+000 -0.23892771E+000  0.12611578E-002
 -0.87184367E+000 -0.21422096E+000 -0.44045204E+000
 -0.69692332E+000 -0.17321475E+000 -0.69591274E+000
 -0.62654657E+000 -0.15806234E+000 -0.76318785E+000
 -0.49582116E+000 -0.12643604E+000 -0.85917129E+000
VECTORS Orth double
 -0.37920473E+000 -0.67410108E+000 -0.63387025E+000
 -0.74176257E+000 -0.19706581E+000 -0.64105644E+000
 -0.67262878E+000 -0.17766910E+000 -0.71833433E+000
 -0.42627678E+000 -0.10974841E+000 -0.89791057E+000
 -0.12113989E-002 -0.35510371E-003 -0.99999920E+000
  0.42741858E+000  0.10636128E+000 -0.89777538E+000
  0.67507650E+000  0.16901773E+000 -0.71812584E+000
  0.73966635E+000  0.18801639E+000 -0.64617608E+000
  0.83223582E+000  0.21344605E+000 -0.51168772E+000
