# vtk DataFile Version 2.0
BldPointCP.BldA
ASCII
 
DATASET POLYDATA
POINTS 9 double
 -0.11085839E+002 -0.24525798E+001  0.10645908E+003
 -0.27394784E+002 -0.60782702E+001  0.94781107E+002
 -0.40300464E+002 -0.89890498E+001  0.82510592E+002
 -0.48985957E+002 -0.10973044E+002  0.70203111E+002
 -0.51805626E+002 -0.11626446E+002  0.58213642E+002
 -0.48994623E+002 -0.10992571E+002  0.46225483E+002
 -0.40305139E+002 -0.90034216E+001  0.33915466E+002
 -0.27423474E+002 -0.60846700E+001  0.21614901E+002
 -0.11191523E+002 -0.24753893E+001  0.98264084E+001
  
POINT_DATA 9
SCALARS Gamma_LL double
LOOKUP_TABLE default
 -0.46293041E+001
 -0.16051274E+003
 -0.14288731E+003
 -0.12036228E+003
 -0.11398988E+003
 -0.10674360E+003
 -0.11773748E+003
 -0.14880179E+003
 -0.69166184E+002
VECTORS Vind_CP double
  0.97802736E-001 -0.25807982E+000  0.11570851E+000
 -0.48179661E+000  0.15922368E-001  0.48162647E+000
 -0.64709690E+000 -0.25600106E-001  0.45471484E+000
 -0.86829089E+000 -0.88121946E-001  0.26947652E+000
 -0.96674409E+000 -0.12345382E+000  0.10189129E-001
 -0.78308556E+000 -0.92000884E-001 -0.21022617E+000
 -0.54252409E+000 -0.31973880E-001 -0.35735803E+000
 -0.49146425E+000 -0.18841724E-001 -0.46676234E+000
 -0.17485348E+000 -0.89621639E-002 -0.68082599E-001
VECTORS Vtot_CP double
  0.10968581E+002  0.19793345E+002 -0.14559471E+001
  0.48250674E+001  0.50392050E+002 -0.29859356E+001
 -0.12877422E+001  0.74677183E+002 -0.29355378E+001
 -0.65540590E+001  0.91278214E+002 -0.22245794E+001
 -0.83363045E+001  0.96872988E+002 -0.22113243E+001
 -0.64615301E+001  0.91449906E+002 -0.21720237E+001
 -0.12261062E+001  0.74735536E+002 -0.14320654E+001
  0.53129211E+001  0.50376518E+002 -0.67832365E+000
  0.12516245E+002  0.20405797E+002 -0.72795308E-001
VECTORS Vstr_CP double
  0.63292214E+001 -0.20051424E+002  0.15716556E+001
  0.11893136E+002 -0.50376128E+002  0.34675620E+001
  0.17840645E+002 -0.74702783E+002  0.33902527E+001
  0.22885768E+002 -0.91366336E+002  0.24940559E+001
  0.24569560E+002 -0.96996442E+002  0.22215134E+001
  0.22878445E+002 -0.91541906E+002  0.19617975E+001
  0.17883582E+002 -0.74767510E+002  0.10747074E+001
  0.11395615E+002 -0.50395359E+002  0.21156131E+000
  0.45089018E+001 -0.20414759E+002  0.47127092E-002
VECTORS Vwnd_CP double
  0.17200000E+002  0.00000000E+000  0.00000000E+000
  0.17200000E+002  0.00000000E+000  0.00000000E+000
  0.17200000E+002  0.00000000E+000  0.00000000E+000
  0.17200000E+002  0.00000000E+000  0.00000000E+000
  0.17200000E+002  0.00000000E+000  0.00000000E+000
  0.17200000E+002  0.00000000E+000  0.00000000E+000
  0.17200000E+002  0.00000000E+000  0.00000000E+000
  0.17200000E+002  0.00000000E+000  0.00000000E+000
  0.17200000E+002  0.00000000E+000  0.00000000E+000
VECTORS Tangent double
 -0.84912050E+000  0.52815636E+000 -0.67254846E-002
 -0.22052207E+000  0.97538197E+000  0.17822140E-003
 -0.21893747E+000  0.97573879E+000 -0.44678754E-003
 -0.21107649E+000  0.97746786E+000 -0.18132206E-002
 -0.20757062E+000  0.97822003E+000 -0.13536249E-003
 -0.20715717E+000  0.97830762E+000  0.33343749E-003
 -0.20876831E+000  0.97796508E+000  0.31284618E-003
 -0.21144955E+000  0.97738872E+000  0.61739148E-003
 -0.21341430E+000  0.97696169E+000  0.43263671E-003
VECTORS Normal double
 -0.34113683E+000 -0.53863795E+000  0.77038615E+000
 -0.62669346E+000 -0.14182783E+000  0.76625072E+000
 -0.69903966E+000 -0.15653188E+000  0.69774016E+000
 -0.87715248E+000 -0.18859495E+000  0.44162821E+000
 -0.97821963E+000 -0.20757040E+000  0.93881630E-003
 -0.87779816E+000 -0.18572374E+000 -0.44156208E+000
 -0.70050907E+000 -0.14931594E+000 -0.69784797E+000
 -0.63124620E+000 -0.13608231E+000 -0.76355081E+000
 -0.49997024E+000 -0.10883650E+000 -0.85917657E+000
VECTORS Orth double
 -0.40326174E+000 -0.65644499E+000 -0.63754211E+000
 -0.74741242E+000 -0.16886351E+000 -0.64254167E+000
 -0.68074220E+000 -0.15307378E+000 -0.71635081E+000
 -0.43133542E+000 -0.94807805E-001 -0.89719632E+000
 -0.89027166E-003 -0.32728492E-003 -0.99999955E+000
  0.43192162E+000  0.91765444E-001 -0.89723064E+000
  0.68242423E+000  0.14590769E+000 -0.71624585E+000
  0.74620194E+000  0.16184220E+000 -0.64574745E+000
  0.83933551E+000  0.18357687E+000 -0.51167904E+000
