# vtk DataFile Version 2.0
BldPointCP.BldB
ASCII
 
DATASET POLYDATA
POINTS 9 double
  0.24897230E+001  0.11289608E+002  0.10625130E+003
  0.56363264E+001  0.27654770E+002  0.94483251E+002
  0.81996870E+001  0.40795001E+002  0.82386157E+002
  0.99283433E+001  0.49544048E+002  0.70125991E+002
  0.10481075E+002  0.52231031E+002  0.58080019E+002
  0.99372808E+001  0.49380941E+002  0.46056335E+002
  0.81935882E+001  0.40638816E+002  0.33765996E+002
  0.55676514E+001  0.27589398E+002  0.21573987E+002
  0.22684459E+001  0.11235213E+002  0.98389057E+001
  
POINT_DATA 9
SCALARS Gamma_LL double
LOOKUP_TABLE default
  0.10494551E+003
  0.45152289E+002
  0.16892146E+002
  0.15041994E+002
  0.33666379E+002
  0.28750152E+002
  0.19641299E+002
  0.28010768E+002
  0.34594478E+002
VECTORS Vind_CP double
 -0.33260864E-001 -0.11956267E+000 -0.45847209E+000
 -0.73927293E-001 -0.16964119E+000 -0.22815092E+000
 -0.50210527E-001 -0.11310020E+000 -0.55511610E-001
 -0.49532417E-001 -0.16436356E+000 -0.38234193E-002
 -0.77290616E-001 -0.34083836E+000  0.29188211E-001
 -0.96142308E-001 -0.32021411E+000  0.10012134E+000
 -0.74439894E-001 -0.20295149E+000  0.12108907E+000
 -0.60569592E-001 -0.18296990E+000  0.17226972E+000
 -0.12084003E+000 -0.66603652E-001  0.10390294E+000
VECTORS Vtot_CP double
  0.35024188E+002 -0.47022915E+001  0.15388622E+000
  0.65941059E+002 -0.10726394E+002  0.59040382E+000
  0.90720572E+002 -0.16108842E+002  0.81853808E-001
  0.10713880E+003 -0.19205622E+002 -0.80157791E-001
  0.11205967E+003 -0.19548040E+002  0.13559084E+000
  0.10655897E+003 -0.18221134E+002  0.29945500E+000
  0.90452016E+002 -0.15153542E+002  0.44397983E+000
  0.66832679E+002 -0.10366256E+002  0.37299257E+000
  0.37319969E+002 -0.41551291E+001  0.11853666E+000
VECTORS Vstr_CP double
 -0.17857449E+002  0.45827288E+001 -0.61235831E+000
 -0.48814986E+002  0.10556753E+002 -0.81855474E+000
 -0.73570782E+002  0.15995742E+002 -0.13736542E+000
 -0.89988334E+002  0.19041259E+002  0.76334372E-001
 -0.94936958E+002  0.19207201E+002 -0.10640263E+000
 -0.89455116E+002  0.17900920E+002 -0.19933367E+000
 -0.73326456E+002  0.14950590E+002 -0.32289076E+000
 -0.49693248E+002  0.10183286E+002 -0.20072285E+000
 -0.20240809E+002  0.40885254E+001 -0.14633715E-001
VECTORS Vwnd_CP double
  0.17200000E+002  0.00000000E+000  0.00000000E+000
  0.17200000E+002  0.00000000E+000  0.00000000E+000
  0.17200000E+002  0.00000000E+000  0.00000000E+000
  0.17200000E+002  0.00000000E+000  0.00000000E+000
  0.17200000E+002  0.00000000E+000  0.00000000E+000
  0.17200000E+002  0.00000000E+000  0.00000000E+000
  0.17200000E+002  0.00000000E+000  0.00000000E+000
  0.17200000E+002  0.00000000E+000  0.00000000E+000
  0.17200000E+002  0.00000000E+000  0.00000000E+000
VECTORS Tangent double
  0.88819125E+000 -0.45947139E+000  0.15337361E-002
  0.97728569E+000 -0.21189160E+000 -0.38257193E-002
  0.98141916E+000 -0.19183650E+000 -0.38966990E-002
  0.98155173E+000 -0.19119092E+000 -0.14930340E-002
  0.97932093E+000 -0.20231269E+000 -0.31138921E-003
  0.98015998E+000 -0.19820755E+000 -0.41538742E-003
  0.98113692E+000 -0.19331399E+000 -0.22400993E-003
  0.98019683E+000 -0.19802566E+000  0.68254301E-004
  0.97986969E+000 -0.19955533E+000  0.57500017E-002
VECTORS Normal double
  0.24463179E+000  0.47571116E+000  0.84489892E+000
  0.13761049E+000  0.62075106E+000  0.77183643E+000
  0.13781042E+000  0.69060478E+000  0.70998121E+000
  0.17341596E+000  0.88695435E+000  0.42806412E+000
  0.20230096E+000  0.97927858E+000 -0.93691617E-002
  0.17831956E+000  0.88272257E+000 -0.43474474E+000
  0.13721083E+000  0.69720885E+000 -0.70361425E+000
  0.12662993E+000  0.62653381E+000 -0.76903852E+000
  0.10708809E+000  0.50108704E+000 -0.85874555E+000
VECTORS Orth double
  0.38893649E+000  0.75005662E+000 -0.53492379E+000
  0.16117084E+000  0.75483115E+000 -0.63580963E+000
  0.13350923E+000  0.69732617E+000 -0.70420984E+000
  0.80517719E-001  0.42042599E+000 -0.90374713E+000
 -0.22004371E-002 -0.91124218E-002 -0.99995606E+000
 -0.86536363E-001 -0.42604533E+000 -0.90055363E+000
 -0.13617466E+000 -0.69031118E+000 -0.71058211E+000
 -0.15224659E+000 -0.75381776E+000 -0.63920244E+000
 -0.16848600E+000 -0.84207449E+000 -0.51237000E+000
