# vtk DataFile Version 2.0
BldPointCP.BldC
ASCII
 
DATASET POLYDATA
POINTS 9 double
  0.60849109E+001 -0.97130618E+001  0.10635487E+003
  0.14914452E+002 -0.23808948E+002  0.94569349E+002
  0.21958896E+002 -0.35054293E+002  0.82326992E+002
  0.26729327E+002 -0.42669381E+002  0.70073486E+002
  0.28271734E+002 -0.45131577E+002  0.58091612E+002
  0.26729342E+002 -0.42669358E+002  0.46109789E+002
  0.21958882E+002 -0.35054010E+002  0.33856301E+002
  0.14914415E+002 -0.23808635E+002  0.21613741E+002
  0.60845156E+001 -0.97130404E+001  0.98280077E+001
  
POINT_DATA 9
SCALARS Gamma_LL double
LOOKUP_TABLE default
  0.12044248E-001
  0.27192721E-001
  0.22275488E-001
  0.23642606E-001
  0.25408316E-001
  0.24656424E-001
  0.24333978E-001
  0.28786184E-001
  0.75452781E-002
VECTORS Vind_CP double
 -0.32811548E-004 -0.43045354E-005 -0.34401524E-004
 -0.20981057E-004  0.31701766E-004 -0.49911950E-004
 -0.23242102E-004  0.29409913E-004 -0.29158290E-004
 -0.40509518E-004  0.53086830E-004 -0.23414645E-004
 -0.56334213E-004  0.76208411E-004  0.81267632E-007
 -0.44135019E-004  0.58438112E-004  0.26196375E-004
 -0.28918552E-004  0.38507987E-004  0.36818727E-004
 -0.30634867E-004  0.42771299E-004  0.58660181E-004
 -0.28291580E-004 -0.17343392E-004  0.49419302E-005
VECTORS Vtot_CP double
 -0.39369617E+000 -0.10942874E+002  0.75885377E-001
 -0.25832488E+002 -0.26667681E+002 -0.11149795E-001
 -0.46227829E+002 -0.39168159E+002 -0.13820524E+000
 -0.59993885E+002 -0.47689168E+002 -0.10864272E+000
 -0.64436690E+002 -0.50454665E+002 -0.33717183E-001
 -0.59992582E+002 -0.47704746E+002  0.41639854E-001
 -0.46225683E+002 -0.39208079E+002  0.73065676E-001
 -0.25824016E+002 -0.26710081E+002 -0.27745974E-001
 -0.31304009E+000 -0.10943939E+002 -0.77708777E-001
VECTORS Vstr_CP double
  0.17593663E+002  0.10942870E+002 -0.75919778E-001
  0.43032467E+002  0.26667713E+002  0.11099883E-001
  0.63427806E+002  0.39168189E+002  0.13817608E+000
  0.77193845E+002  0.47689221E+002  0.10861930E+000
  0.81636633E+002  0.50454742E+002  0.33717265E-001
  0.77192538E+002  0.47704804E+002 -0.41613657E-001
  0.63425654E+002  0.39208117E+002 -0.73028857E-001
  0.43023986E+002  0.26710124E+002  0.27804634E-001
  0.17513012E+002  0.10943921E+002  0.77713719E-001
VECTORS Vwnd_CP double
  0.17200000E+002  0.00000000E+000  0.00000000E+000
  0.17200000E+002  0.00000000E+000  0.00000000E+000
  0.17200000E+002  0.00000000E+000  0.00000000E+000
  0.17200000E+002  0.00000000E+000  0.00000000E+000
  0.17200000E+002  0.00000000E+000  0.00000000E+000
  0.17200000E+002  0.00000000E+000  0.00000000E+000
  0.17200000E+002  0.00000000E+000  0.00000000E+000
  0.17200000E+002  0.00000000E+000  0.00000000E+000
  0.17200000E+002  0.00000000E+000  0.00000000E+000
VECTORS Tangent double
 -0.67924412E+000 -0.73391241E+000  0.26248041E-004
 -0.84743853E+000 -0.53089352E+000  0.48296399E-004
 -0.84743854E+000 -0.53089351E+000  0.38644493E-004
 -0.84743127E+000 -0.53090512E+000  0.16765626E-004
 -0.84740984E+000 -0.53093932E+000 -0.10242532E-004
 -0.84742851E+000 -0.53090953E+000 -0.32503917E-004
 -0.84744423E+000 -0.53088442E+000 -0.15183875E-004
 -0.84744531E+000 -0.53088271E+000 -0.33795649E-006
 -0.84744977E+000 -0.53087558E+000 -0.31719702E-004
VECTORS Normal double
  0.38548171E+000 -0.35673719E+000  0.85096559E+000
  0.34257374E+000 -0.54676367E+000  0.76399786E+000
  0.37700208E+000 -0.60173816E+000  0.70411690E+000
  0.47566482E+000 -0.75924262E+000  0.44417746E+000
  0.53093932E+000 -0.84740984E+000  0.62419334E-005
  0.47567105E+000 -0.75923062E+000 -0.44419131E+000
  0.37697826E+000 -0.60174559E+000 -0.70412331E+000
  0.34254464E+000 -0.54680173E+000 -0.76398366E+000
  0.27172539E+000 -0.43371061E+000 -0.85910443E+000
VECTORS Orth double
  0.62452484E+000 -0.57802349E+000 -0.52522145E+000
  0.40557511E+000 -0.64745777E+000 -0.64521878E+000
  0.37378784E+000 -0.59671037E+000 -0.71008407E+000
  0.23580336E+000 -0.37641785E+000 -0.89593883E+000
  0.11993710E-004  0.14868695E-006 -0.10000000E+001
 -0.23580072E+000  0.37643584E+000 -0.89593196E+000
 -0.37379896E+000  0.59671097E+000 -0.71007771E+000
 -0.40558553E+000  0.64743448E+000 -0.64523559E+000
 -0.45606381E+000  0.72805647E+000 -0.51180033E+000
