# vtk DataFile Version 2.0

ASCII
 
DATASET POLYDATA
POINTS 210 double
  0.38138738E+000  0.93182340E-001  0.11318046E+003
  0.15835287E+002 -0.13276264E+002  0.10071321E+003
  0.26912669E+002 -0.22853582E+002  0.88664522E+002
  0.36255798E+002 -0.30824258E+002  0.76567378E+002
  0.40720138E+002 -0.34573499E+002  0.64207446E+002
  0.40654620E+002 -0.34397024E+002  0.51934550E+002
  0.36130447E+002 -0.30533635E+002  0.39634653E+002
  0.26818173E+002 -0.22709094E+002  0.27405880E+002
  0.15672300E+002 -0.13294597E+002  0.15270316E+002
  0.15468668E-003  0.24858540E-004  0.30001972E+001
 -0.41410529E+000 -0.43358045E+001  0.11314486E+003
  0.13050568E+002 -0.16698645E+002  0.10073779E+003
  0.24885386E+002 -0.25194542E+002  0.88689639E+002
  0.34627211E+002 -0.32661928E+002  0.76567845E+002
  0.39249476E+002 -0.36283957E+002  0.64203742E+002
  0.39163935E+002 -0.36148073E+002  0.51937855E+002
  0.34427715E+002 -0.32498887E+002  0.39637033E+002
  0.24590803E+002 -0.25311721E+002  0.27409966E+002
  0.12772905E+002 -0.16736036E+002  0.15270597E+002
 -0.29173895E+001 -0.34255144E+001  0.29400580E+001
 -0.32112334E+000 -0.43321619E+001  0.11313807E+003
  0.12915019E+002 -0.16928603E+002  0.10071420E+003
  0.24591969E+002 -0.25631831E+002  0.88678784E+002
  0.34195990E+002 -0.33271050E+002  0.76560278E+002
  0.38749005E+002 -0.36972812E+002  0.64200675E+002
  0.38664709E+002 -0.36834502E+002  0.51941813E+002
  0.33997426E+002 -0.33102907E+002  0.39646451E+002
  0.24293928E+002 -0.25742254E+002  0.27422274E+002
  0.12637095E+002 -0.16959902E+002  0.15272553E+002
 -0.28109860E+001 -0.33700888E+001  0.29376202E+001
 -0.26097115E+000 -0.43296686E+001  0.11313571E+003
  0.12749687E+002 -0.17152255E+002  0.10070947E+003
  0.24269852E+002 -0.26053890E+002  0.88678385E+002
  0.33728931E+002 -0.33852749E+002  0.76550773E+002
  0.38218641E+002 -0.37640113E+002  0.64202010E+002
  0.38142248E+002 -0.37515714E+002  0.51951425E+002
  0.33542252E+002 -0.33703303E+002  0.39663194E+002
  0.23980634E+002 -0.26167687E+002  0.27439242E+002
  0.12494879E+002 -0.17179866E+002  0.15272872E+002
 -0.27028116E+001 -0.33150741E+001  0.29384660E+001
 -0.20080724E+000 -0.43233243E+001  0.11314061E+003
  0.12581313E+002 -0.17369992E+002  0.10070475E+003
  0.23942132E+002 -0.26466651E+002  0.88676787E+002
  0.33253647E+002 -0.34422920E+002  0.76540408E+002
  0.37676707E+002 -0.38294010E+002  0.64202938E+002
  0.37607540E+002 -0.38184635E+002  0.51960174E+002
  0.33076708E+002 -0.34292768E+002  0.39679486E+002
  0.23659702E+002 -0.26583946E+002  0.27456621E+002
  0.12349356E+002 -0.17394624E+002  0.15273325E+002
 -0.25935064E+001 -0.32590541E+001  0.29386681E+001
 -0.13955687E+000 -0.43162856E+001  0.11314737E+003
  0.12411199E+002 -0.17581954E+002  0.10070348E+003
  0.23609200E+002 -0.26870305E+002  0.88674597E+002
  0.32768960E+002 -0.34980154E+002  0.76528020E+002
  0.37123157E+002 -0.38934254E+002  0.64202382E+002
  0.37059369E+002 -0.38839519E+002  0.51968874E+002
  0.32600046E+002 -0.34869952E+002  0.39696325E+002
  0.23332086E+002 -0.26991585E+002  0.27473072E+002
  0.12201164E+002 -0.17604193E+002  0.15276879E+002
 -0.24830599E+001 -0.32022384E+001  0.29349602E+001
 -0.76208671E-001 -0.43100322E+001  0.11314738E+003
  0.12237795E+002 -0.17787465E+002  0.10069955E+003
  0.23271337E+002 -0.27264958E+002  0.88672039E+002
  0.32275776E+002 -0.35525162E+002  0.76514795E+002
  0.36558289E+002 -0.39560871E+002  0.64200729E+002
  0.36498570E+002 -0.39480607E+002  0.51977517E+002
  0.32113042E+002 -0.35434948E+002  0.39712774E+002
  0.22998320E+002 -0.27390745E+002  0.27487987E+002
  0.12049256E+002 -0.17808061E+002  0.15279133E+002
 -0.23715050E+001 -0.31447504E+001  0.29308897E+001
 -0.12797897E-001 -0.42984533E+001  0.11315332E+003
  0.12061942E+002 -0.17986913E+002  0.10069223E+003
  0.22928993E+002 -0.27650922E+002  0.88669882E+002
  0.31772642E+002 -0.36056667E+002  0.76497840E+002
  0.35983520E+002 -0.40175084E+002  0.64198404E+002
  0.35926431E+002 -0.40108567E+002  0.51985611E+002
  0.31616906E+002 -0.35988312E+002  0.39728374E+002
  0.22658731E+002 -0.27781386E+002  0.27501380E+002
  0.11893966E+002 -0.18006177E+002  0.15282752E+002
 -0.22592624E+001 -0.30857324E+001  0.29266546E+001
  0.47325082E-001 -0.42698136E+001  0.11315774E+003
  0.11883893E+002 -0.18180926E+002  0.10068893E+003
  0.22579917E+002 -0.28026201E+002  0.88665204E+002
  0.31265119E+002 -0.36579687E+002  0.76484796E+002
  0.35399799E+002 -0.40777704E+002  0.64195960E+002
  0.35344586E+002 -0.40724476E+002  0.51992710E+002
  0.31112793E+002 -0.36530592E+002  0.39742405E+002
  0.22314019E+002 -0.28163886E+002  0.27511850E+002
  0.11736213E+002 -0.18198122E+002  0.15286286E+002
 -0.21465171E+001 -0.30248261E+001  0.29225620E+001
  0.11348939E+000 -0.42521634E+001  0.11315130E+003
  0.11705411E+002 -0.18367866E+002  0.10069019E+003
  0.22229665E+002 -0.28395567E+002  0.88664472E+002
  0.30751707E+002 -0.37093018E+002  0.76473249E+002
  0.34806171E+002 -0.41368038E+002  0.64192075E+002
  0.34752070E+002 -0.41327242E+002  0.52000345E+002
  0.30602079E+002 -0.37062593E+002  0.39753602E+002
  0.21961509E+002 -0.28535546E+002  0.27524956E+002
  0.11575584E+002 -0.18384470E+002  0.15285800E+002
 -0.20321493E+001 -0.29639210E+001  0.29148636E+001
  0.18069697E+000 -0.42319674E+001  0.11315147E+003
  0.11530944E+002 -0.18550914E+002  0.10070465E+003
  0.21875827E+002 -0.28756967E+002  0.88664825E+002
  0.30230541E+002 -0.37595123E+002  0.76462098E+002
  0.34208929E+002 -0.41951923E+002  0.64191467E+002
  0.34155751E+002 -0.41922769E+002  0.52003498E+002
  0.30082951E+002 -0.37582390E+002  0.39763126E+002
  0.21607717E+002 -0.28902023E+002  0.27530038E+002
  0.11410459E+002 -0.18565986E+002  0.15292252E+002
 -0.19171216E+001 -0.29013278E+001  0.29066967E+001
  0.25191627E+000 -0.42095308E+001  0.11315752E+003
  0.11347419E+002 -0.18722636E+002  0.10073584E+003
  0.21516055E+002 -0.29108339E+002  0.88662708E+002
  0.29708361E+002 -0.38092432E+002  0.76456127E+002
  0.33610396E+002 -0.42531802E+002  0.64192404E+002
  0.33558446E+002 -0.42513553E+002  0.52003836E+002
  0.29563462E+002 -0.38096805E+002  0.39765918E+002
  0.21247248E+002 -0.29258221E+002  0.27536026E+002
  0.11243510E+002 -0.18740454E+002  0.15293954E+002
 -0.18006205E+001 -0.28384768E+001  0.29020810E+001
  0.32679387E+000 -0.41952055E+001  0.11315005E+003
  0.11171794E+002 -0.18893089E+002  0.10074996E+003
  0.21153261E+002 -0.29452276E+002  0.88662711E+002
  0.29182508E+002 -0.38582710E+002  0.76453822E+002
  0.33011560E+002 -0.43108754E+002  0.64195392E+002
  0.32961383E+002 -0.43100572E+002  0.52000988E+002
  0.29040750E+002 -0.38603153E+002  0.39763591E+002
  0.20883245E+002 -0.29606802E+002  0.27538197E+002
  0.11074440E+002 -0.18908682E+002  0.15294270E+002
 -0.16824826E+001 -0.27749394E+001  0.28982186E+001
  0.40087934E+000 -0.41716254E+001  0.11314735E+003
  0.10987332E+002 -0.19054211E+002  0.10078089E+003
  0.20789757E+002 -0.29791054E+002  0.88668401E+002
  0.28652855E+002 -0.39065897E+002  0.76455270E+002
  0.32415255E+002 -0.43685473E+002  0.64200524E+002
  0.32367506E+002 -0.43686314E+002  0.51995033E+002
  0.28514684E+002 -0.39101016E+002  0.39756602E+002
  0.20518121E+002 -0.29949909E+002  0.27532832E+002
  0.10900229E+002 -0.19070763E+002  0.15292882E+002
 -0.15617158E+001 -0.27122926E+001  0.28993166E+001
  0.47912313E+000 -0.41479245E+001  0.11314704E+003
  0.10807894E+002 -0.19205432E+002  0.10082990E+003
  0.20418018E+002 -0.30117642E+002  0.88668399E+002
  0.28118779E+002 -0.39541321E+002  0.76460030E+002
  0.31816529E+002 -0.44256916E+002  0.64207239E+002
  0.31771622E+002 -0.44265540E+002  0.51986538E+002
  0.27984646E+002 -0.39589397E+002  0.39745504E+002
  0.20144358E+002 -0.30280024E+002  0.27532198E+002
  0.10726487E+002 -0.19228929E+002  0.15288637E+002
 -0.14390059E+001 -0.26489145E+001  0.29010254E+001
  0.55797050E+000 -0.41130990E+001  0.11314619E+003
  0.10626982E+002 -0.19357408E+002  0.10084965E+003
  0.20044704E+002 -0.30438436E+002  0.88673550E+002
  0.27578542E+002 -0.40006923E+002  0.76466804E+002
  0.31211221E+002 -0.44818212E+002  0.64214322E+002
  0.31169258E+002 -0.44833202E+002  0.51977101E+002
  0.27448486E+002 -0.40065868E+002  0.39732158E+002
  0.19768855E+002 -0.30603588E+002  0.27524911E+002
  0.10546807E+002 -0.19378376E+002  0.15289603E+002
 -0.13133087E+001 -0.25851197E+001  0.29052155E+001
  0.64118068E+000 -0.40781989E+001  0.11314524E+003
  0.10445284E+002 -0.19499363E+002  0.10088512E+003
  0.19666873E+002 -0.30750634E+002  0.88679721E+002
  0.27031153E+002 -0.40461287E+002  0.76474793E+002
  0.30595970E+002 -0.45365103E+002  0.64221285E+002
  0.30556759E+002 -0.45384908E+002  0.51967512E+002
  0.26904839E+002 -0.40528806E+002  0.39717797E+002
  0.19388668E+002 -0.30917454E+002  0.27515995E+002
  0.10370924E+002 -0.19524492E+002  0.15273304E+002
 -0.11855093E+001 -0.25210355E+001  0.29095348E+001
  0.72693359E+000 -0.40379811E+001  0.11313654E+003
  0.10264307E+002 -0.19636412E+002  0.10092572E+003
  0.19281767E+002 -0.31051338E+002  0.88682078E+002
  0.26475516E+002 -0.40902630E+002  0.76482903E+002
  0.29964378E+002 -0.45889310E+002  0.64227198E+002
  0.29927256E+002 -0.45912407E+002  0.51958974E+002
  0.26352211E+002 -0.40976292E+002  0.39704111E+002
  0.19001085E+002 -0.31218378E+002  0.27510690E+002
  0.10189512E+002 -0.19663175E+002  0.15263607E+002
 -0.10561440E+001 -0.24567937E+001  0.29242029E+001
  0.81853011E+000 -0.39980950E+001  0.11314463E+003
  0.10078000E+002 -0.19764892E+002  0.10096358E+003
  0.18892989E+002 -0.31344230E+002  0.88686740E+002
  0.25910884E+002 -0.41329108E+002  0.76490358E+002
  0.29317321E+002 -0.46390013E+002  0.64231365E+002
  0.29281436E+002 -0.46414897E+002  0.51952324E+002
  0.25789522E+002 -0.41406331E+002  0.39691827E+002
  0.18610063E+002 -0.31510328E+002  0.27501900E+002
  0.10004931E+002 -0.19794929E+002  0.15251717E+002
 -0.92664242E+000 -0.23895613E+001  0.29393834E+001
  0.91493062E+000 -0.39579642E+001  0.11315077E+003
  0.98864279E+001 -0.19882827E+002  0.10096819E+003
  0.18497863E+002 -0.31626325E+002  0.88689192E+002
  0.25338384E+002 -0.41741304E+002  0.76497198E+002
  0.28656322E+002 -0.46867953E+002  0.64234298E+002
  0.28620912E+002 -0.46893471E+002  0.51947746E+002
  0.25217588E+002 -0.41819687E+002  0.39681850E+002
  0.18214325E+002 -0.31791964E+002  0.27493417E+002
  0.98153292E+001 -0.19916720E+002  0.15248075E+002
 -0.79586561E+000 -0.23211456E+001  0.29439988E+001
  0.10152966E+001 -0.39179238E+001  0.11315577E+003
  0.96982000E+001 -0.19999443E+002  0.10099362E+003
  0.18101222E+002 -0.31903316E+002  0.88696958E+002
  0.24759416E+002 -0.42141025E+002  0.76503005E+002
  0.27986591E+002 -0.47329492E+002  0.64236256E+002
  0.27951255E+002 -0.47355112E+002  0.51944964E+002
  0.24638398E+002 -0.42219115E+002  0.39674094E+002
  0.17815130E+002 -0.32065032E+002  0.27484479E+002
  0.96217115E+001 -0.20028830E+002  0.15252524E+002
 -0.66537769E+000 -0.22504017E+001  0.29464123E+001
  
POLYGONS 180 900
      4      0      1     11     10
      4      1      2     12     11
      4      2      3     13     12
      4      3      4     14     13
      4      4      5     15     14
      4      5      6     16     15
      4      6      7     17     16
      4      7      8     18     17
      4      8      9     19     18
      4     10     11     21     20
      4     11     12     22     21
      4     12     13     23     22
      4     13     14     24     23
      4     14     15     25     24
      4     15     16     26     25
      4     16     17     27     26
      4     17     18     28     27
      4     18     19     29     28
      4     20     21     31     30
      4     21     22     32     31
      4     22     23     33     32
      4     23     24     34     33
      4     24     25     35     34
      4     25     26     36     35
      4     26     27     37     36
      4     27     28     38     37
      4     28     29     39     38
      4     30     31     41     40
      4     31     32     42     41
      4     32     33     43     42
      4     33     34     44     43
      4     34     35     45     44
      4     35     36     46     45
      4     36     37     47     46
      4     37     38     48     47
      4     38     39     49     48
      4     40     41     51     50
      4     41     42     52     51
      4     42     43     53     52
      4     43     44     54     53
      4     44     45     55     54
      4     45     46     56     55
      4     46     47     57     56
      4     47     48     58     57
      4     48     49     59     58
      4     50     51     61     60
      4     51     52     62     61
      4     52     53     63     62
      4     53     54     64     63
      4     54     55     65     64
      4     55     56     66     65
      4     56     57     67     66
      4     57     58     68     67
      4     58     59     69     68
      4     60     61     71     70
      4     61     62     72     71
      4     62     63     73     72
      4     63     64     74     73
      4     64     65     75     74
      4     65     66     76     75
      4     66     67     77     76
      4     67     68     78     77
      4     68     69     79     78
      4     70     71     81     80
      4     71     72     82     81
      4     72     73     83     82
      4     73     74     84     83
      4     74     75     85     84
      4     75     76     86     85
      4     76     77     87     86
      4     77     78     88     87
      4     78     79     89     88
      4     80     81     91     90
      4     81     82     92     91
      4     82     83     93     92
      4     83     84     94     93
      4     84     85     95     94
      4     85     86     96     95
      4     86     87     97     96
      4     87     88     98     97
      4     88     89     99     98
      4     90     91    101    100
      4     91     92    102    101
      4     92     93    103    102
      4     93     94    104    103
      4     94     95    105    104
      4     95     96    106    105
      4     96     97    107    106
      4     97     98    108    107
      4     98     99    109    108
      4    100    101    111    110
      4    101    102    112    111
      4    102    103    113    112
      4    103    104    114    113
      4    104    105    115    114
      4    105    106    116    115
      4    106    107    117    116
      4    107    108    118    117
      4    108    109    119    118
      4    110    111    121    120
      4    111    112    122    121
      4    112    113    123    122
      4    113    114    124    123
      4    114    115    125    124
      4    115    116    126    125
      4    116    117    127    126
      4    117    118    128    127
      4    118    119    129    128
      4    120    121    131    130
      4    121    122    132    131
      4    122    123    133    132
      4    123    124    134    133
      4    124    125    135    134
      4    125    126    136    135
      4    126    127    137    136
      4    127    128    138    137
      4    128    129    139    138
      4    130    131    141    140
      4    131    132    142    141
      4    132    133    143    142
      4    133    134    144    143
      4    134    135    145    144
      4    135    136    146    145
      4    136    137    147    146
      4    137    138    148    147
      4    138    139    149    148
      4    140    141    151    150
      4    141    142    152    151
      4    142    143    153    152
      4    143    144    154    153
      4    144    145    155    154
      4    145    146    156    155
      4    146    147    157    156
      4    147    148    158    157
      4    148    149    159    158
      4    150    151    161    160
      4    151    152    162    161
      4    152    153    163    162
      4    153    154    164    163
      4    154    155    165    164
      4    155    156    166    165
      4    156    157    167    166
      4    157    158    168    167
      4    158    159    169    168
      4    160    161    171    170
      4    161    162    172    171
      4    162    163    173    172
      4    163    164    174    173
      4    164    165    175    174
      4    165    166    176    175
      4    166    167    177    176
      4    167    168    178    177
      4    168    169    179    178
      4    170    171    181    180
      4    171    172    182    181
      4    172    173    183    182
      4    173    174    184    183
      4    174    175    185    184
      4    175    176    186    185
      4    176    177    187    186
      4    177    178    188    187
      4    178    179    189    188
      4    180    181    191    190
      4    181    182    192    191
      4    182    183    193    192
      4    183    184    194    193
      4    184    185    195    194
      4    185    186    196    195
      4    186    187    197    196
      4    187    188    198    197
      4    188    189    199    198
      4    190    191    201    200
      4    191    192    202    201
      4    192    193    203    202
      4    193    194    204    203
      4    194    195    205    204
      4    195    196    206    205
      4    196    197    207    206
      4    197    198    208    207
      4    198    199    209    208
  
CELL_DATA 180
SCALARS Gamma double
LOOKUP_TABLE default
  0.62699896E+002
  0.11167302E+003
  0.88862113E+002
  0.97879493E+002
  0.10616282E+003
  0.10793698E+003
  0.10265607E+003
  0.11620776E+003
  0.33801354E+002
  0.62699896E+002
  0.11167302E+003
  0.88862113E+002
  0.97879493E+002
  0.10616282E+003
  0.10793698E+003
  0.10265607E+003
  0.11620776E+003
  0.33801354E+002
  0.61479691E+002
  0.11027034E+003
  0.87574107E+002
  0.96292419E+002
  0.10462984E+003
  0.10662211E+003
  0.10154956E+003
  0.11473626E+003
  0.33316355E+002
  0.60168888E+002
  0.10854302E+003
  0.84897822E+002
  0.94386827E+002
  0.10400519E+003
  0.10560066E+003
  0.99898026E+002
  0.11298045E+003
  0.32854911E+002
  0.58804484E+002
  0.10679948E+003
  0.82254837E+002
  0.92570860E+002
  0.10345399E+003
  0.10455118E+003
  0.97897462E+002
  0.11123491E+003
  0.32379709E+002
  0.57414600E+002
  0.10501053E+003
  0.79670528E+002
  0.90825219E+002
  0.10293404E+003
  0.10344840E+003
  0.95868519E+002
  0.10951464E+003
  0.31832455E+002
  0.55995925E+002
  0.10318339E+003
  0.77152219E+002
  0.89152246E+002
  0.10240634E+003
  0.10226954E+003
  0.93821348E+002
  0.10775768E+003
  0.31223643E+002
  0.54575238E+002
  0.10136402E+003
  0.74760834E+002
  0.87522418E+002
  0.10176708E+003
  0.10100265E+003
  0.91829215E+002
  0.10604890E+003
  0.30616215E+002
  0.53124638E+002
  0.99545566E+002
  0.72503410E+002
  0.85940782E+002
  0.10101857E+003
  0.99434899E+002
  0.89869162E+002
  0.10439297E+003
  0.30010144E+002
  0.51647466E+002
  0.97738212E+002
  0.70404471E+002
  0.84394105E+002
  0.10013231E+003
  0.97654972E+002
  0.87943123E+002
  0.10280359E+003
  0.29406983E+002
  0.50133611E+002
  0.95802285E+002
  0.68396894E+002
  0.82775051E+002
  0.98966935E+002
  0.95623256E+002
  0.85937736E+002
  0.10113575E+003
  0.28760945E+002
  0.47126770E+002
  0.91081558E+002
  0.64599049E+002
  0.78726788E+002
  0.94621029E+002
  0.90646486E+002
  0.81452395E+002
  0.96570826E+002
  0.27272932E+002
  0.40307935E+002
  0.78883779E+002
  0.55757413E+002
  0.68182051E+002
  0.82010533E+002
  0.78109832E+002
  0.70331007E+002
  0.84043411E+002
  0.23558086E+002
  0.31180205E+002
  0.61861691E+002
  0.43729599E+002
  0.53402917E+002
  0.64079181E+002
  0.60762635E+002
  0.54966018E+002
  0.66251422E+002
  0.18425397E+002
  0.21751674E+002
  0.43748467E+002
  0.31092012E+002
  0.37702419E+002
  0.44954690E+002
  0.42522550E+002
  0.38757463E+002
  0.47116865E+002
  0.12995209E+002
  0.12940546E+002
  0.26383846E+002
  0.18957153E+002
  0.22682258E+002
  0.26751777E+002
  0.25299876E+002
  0.23305827E+002
  0.28582989E+002
  0.78166061E+001
  0.55517334E+001
  0.11524444E+002
  0.84253451E+001
  0.98669053E+001
  0.11443381E+002
  0.10857547E+002
  0.10153410E+002
  0.12534465E+002
  0.33987728E+001
  0.10796506E+001
  0.22864924E+001
  0.17123151E+001
  0.19508177E+001
  0.22107269E+001
  0.21117534E+001
  0.20087758E+001
  0.24850141E+001
  0.67029763E+000
  0.12168383E-001
  0.26361473E-001
  0.20268502E-001
  0.22122473E-001
  0.24323726E-001
  0.23479501E-001
  0.22930704E-001
  0.28397287E-001
  0.76470951E-002
  0.00000000E+000
  0.00000000E+000
  0.00000000E+000
  0.00000000E+000
  0.00000000E+000
  0.00000000E+000
  0.00000000E+000
  0.00000000E+000
  0.00000000E+000
POINT_DATA 210
VECTORS Uconv double
  0.00000000E+000  0.00000000E+000  0.00000000E+000
  0.00000000E+000  0.00000000E+000  0.00000000E+000
  0.00000000E+000  0.00000000E+000  0.00000000E+000
  0.00000000E+000  0.00000000E+000  0.00000000E+000
  0.00000000E+000  0.00000000E+000  0.00000000E+000
  0.00000000E+000  0.00000000E+000  0.00000000E+000
  0.00000000E+000  0.00000000E+000  0.00000000E+000
  0.00000000E+000  0.00000000E+000  0.00000000E+000
  0.00000000E+000  0.00000000E+000  0.00000000E+000
  0.00000000E+000  0.00000000E+000  0.00000000E+000
  0.00000000E+000  0.00000000E+000  0.00000000E+000
  0.00000000E+000  0.00000000E+000  0.00000000E+000
  0.00000000E+000  0.00000000E+000  0.00000000E+000
  0.00000000E+000  0.00000000E+000  0.00000000E+000
  0.00000000E+000  0.00000000E+000  0.00000000E+000
  0.00000000E+000  0.00000000E+000  0.00000000E+000
  0.00000000E+000  0.00000000E+000  0.00000000E+000
  0.00000000E+000  0.00000000E+000  0.00000000E+000
  0.00000000E+000  0.00000000E+000  0.00000000E+000
  0.00000000E+000  0.00000000E+000  0.00000000E+000
  0.17100418E+002 -0.45154605E+000 -0.67934479E+000
  0.16732667E+002  0.23836032E+000 -0.23589291E+001
  0.16439434E+002  0.68293857E+000 -0.10853543E+001
  0.16267543E+002  0.92388056E+000 -0.75501518E+000
  0.15938993E+002  0.12172945E+001 -0.30664003E+000
  0.15816679E+002  0.13087629E+001  0.39576528E+000
  0.16063710E+002  0.10772061E+001  0.94062791E+000
  0.16300094E+002  0.82604884E+000  0.12305948E+001
  0.16769228E+002  0.34703978E+000  0.19569015E+000
  0.16762808E+002  0.23239448E+000 -0.24373634E+000
  0.17130672E+002 -0.56792325E+000 -0.69350059E+000
  0.16757822E+002  0.19484130E+000 -0.24507687E+001
  0.16449186E+002  0.67913451E+000 -0.10427559E+001
  0.16222963E+002  0.96866349E+000 -0.79221336E+000
  0.15822518E+002  0.13234482E+001 -0.33532288E+000
  0.15679265E+002  0.14332596E+001  0.43087427E+000
  0.16004103E+002  0.11361010E+001  0.99026451E+000
  0.16311237E+002  0.82257213E+000  0.12030046E+001
  0.16793156E+002  0.33804940E+000  0.10498532E+000
  0.16786972E+002  0.18401623E+000 -0.25126855E+000
  0.17092921E+002 -0.45194571E+000 -0.35770932E+000
  0.16719496E+002  0.18971928E+000 -0.23902627E+001
  0.16466927E+002  0.66742575E+000 -0.10198080E+001
  0.16235194E+002  0.95694468E+000 -0.78129435E+000
  0.15725725E+002  0.14156359E+001 -0.33047212E+000
  0.15608682E+002  0.14980865E+001  0.42617842E+000
  0.16009075E+002  0.11337073E+001  0.98874308E+000
  0.16327029E+002  0.81371317E+000  0.11829198E+001
  0.16802710E+002  0.32245395E+000  0.20441596E+000
  0.16792266E+002  0.17327807E+000 -0.23642247E+000
  0.17100132E+002 -0.48163640E+000 -0.32704851E+000
  0.16749863E+002  0.16383906E+000 -0.21508504E+001
  0.16490669E+002  0.64910287E+000 -0.98781187E+000
  0.16218091E+002  0.97464990E+000 -0.78748536E+000
  0.15627334E+002  0.15111483E+001 -0.34738875E+000
  0.15494549E+002  0.16079973E+001  0.44943709E+000
  0.15980227E+002  0.11641580E+001  0.10066918E+001
  0.16350730E+002  0.79632612E+000  0.11510309E+001
  0.16821926E+002  0.31086749E+000  0.14397181E+000
  0.16796206E+002  0.16582583E+000 -0.22125913E+000
  0.17131010E+002 -0.58200524E+000 -0.25120674E+000
  0.16690686E+002  0.19315518E+000 -0.21878828E+001
  0.16521175E+002  0.62306423E+000 -0.94585829E+000
  0.16215613E+002  0.97784437E+000 -0.78016766E+000
  0.15545072E+002  0.15929383E+001 -0.36130547E+000
  0.15402481E+002  0.16992100E+001  0.46768292E+000
  0.15967718E+002  0.11784620E+001  0.10087559E+001
  0.16384109E+002  0.76803138E+000  0.10917233E+001
  0.16831360E+002  0.30249327E+000  0.15492202E+000
  0.16804215E+002  0.14931147E+000 -0.22209702E+000
  0.17159518E+002 -0.66652377E+000 -0.15081931E+000
  0.16677508E+002  0.14856650E+000 -0.22538181E+001
  0.16559635E+002  0.58786345E+000 -0.86738397E+000
  0.15971667E+002  0.11965947E+001 -0.11155931E+001
  0.15486293E+002  0.16524706E+001 -0.36707726E+000
  0.15336014E+002  0.17667618E+001  0.47752639E+000
  0.15971657E+002  0.11757281E+001  0.10004132E+001
  0.16423026E+002  0.73316538E+000  0.10341509E+001
  0.16853576E+002  0.28808163E+000  0.37762606E+000
  0.16809697E+002  0.13910018E+000 -0.20843737E+000
  0.17016380E+002 -0.21554079E+000 -0.28985962E+000
  0.16652239E+002  0.80845067E-001 -0.23481763E+001
  0.16340492E+002  0.77354738E+000 -0.11534959E+001
  0.16009072E+002  0.11591047E+001 -0.10701851E+001
  0.15460333E+002  0.16786627E+001 -0.36425426E+000
  0.15306168E+002  0.17980872E+001  0.47638171E+000
  0.15998698E+002  0.11484136E+001  0.96739212E+000
  0.16469716E+002  0.68941542E+000  0.96440785E+000
  0.16876261E+002  0.27027462E+000  0.34729413E+000
  0.16816459E+002  0.12650532E+000 -0.19427513E+000
  0.17046969E+002 -0.15778768E+000 -0.11333104E+001
  0.16609784E+002  0.40283905E-001 -0.27111652E+001
  0.16398721E+002  0.71860056E+000 -0.10664284E+001
  0.16069715E+002  0.10955554E+001 -0.99284045E+000
  0.15188258E+002  0.19179629E+001 -0.53573249E+000
  0.15008501E+002  0.20572593E+001  0.66613343E+000
  0.16051899E+002  0.10928890E+001  0.90659339E+000
  0.16234868E+002  0.89713928E+000  0.13495886E+001
  0.16882273E+002  0.25956034E+000  0.31081305E+000
  0.16800856E+002  0.15880073E+000 -0.16342296E+000
  0.17032518E+002 -0.21288842E+000 -0.98804744E+000
  0.16792395E+002  0.11913018E+000 -0.14942124E+001
  0.16464256E+002  0.65500877E+000 -0.96770820E+000
  0.15879347E+002  0.12595787E+001 -0.10774825E+001
  0.15072265E+002  0.20147147E+001 -0.47367396E+000
  0.14879605E+002  0.21625295E+001  0.60649283E+000
  0.15820670E+002  0.12859665E+001  0.10259668E+001
  0.16321038E+002  0.81462908E+000  0.12174898E+001
  0.16897753E+002  0.24196439E+000  0.28888014E+000
  0.16792003E+002  0.17678218E+000 -0.13809922E+000
  0.17216877E+002 -0.16561534E+000 -0.63826312E+000
  0.16884019E+002  0.33345963E-001 -0.11442860E+001
  0.16281903E+002  0.81126376E+000 -0.12697787E+001
  0.16027914E+002  0.11069688E+001 -0.93813513E+000
  0.15307564E+002  0.17819680E+001 -0.40752816E+000
  0.15138737E+002  0.19135049E+001  0.52624809E+000
  0.15981439E+002  0.11276653E+001  0.88628538E+000
  0.16411914E+002  0.72299553E+000  0.10715622E+001
  0.16921068E+002  0.21722642E+000  0.24103196E+000
  0.16801442E+002  0.15930116E+000 -0.12412473E+000
  0.17367665E+002 -0.67194653E+000 -0.43052932E+000
  0.16879523E+002  0.35232884E-001 -0.10124883E+001
  0.16383456E+002  0.71109493E+000 -0.11113055E+001
  0.16192404E+002  0.93386465E+000 -0.78303433E+000
  0.15598554E+002  0.14871723E+001 -0.33123374E+000
  0.15458334E+002  0.15981234E+001  0.43321481E+000
  0.16161245E+002  0.94494784E+000  0.72684154E+000
  0.16503520E+002  0.62915958E+000  0.92718963E+000
  0.16916426E+002  0.21904474E+000  0.13247460E+000
  0.16809642E+002  0.14424869E+000 -0.10952483E+000
  0.17332916E+002 -0.58428398E+000 -0.31269964E+000
  0.16918478E+002  0.32913540E-001 -0.79392979E+000
  0.16484124E+002  0.61115367E+000 -0.97599164E+000
  0.16366799E+002  0.74651099E+000 -0.61769272E+000
  0.15934552E+002  0.11445907E+001 -0.24612434E+000
  0.15824301E+002  0.12339736E+001  0.33183457E+000
  0.16354253E+002  0.74499019E+000  0.55408860E+000
  0.16594152E+002  0.53685361E+000  0.79584341E+000
  0.16720098E+002  0.40011795E+000  0.43967056E+000
  0.16823040E+002  0.11945563E+000 -0.89875139E-001
  0.17341914E+002 -0.62806237E+000 -0.25546602E+000
  0.16726155E+002  0.23127813E+000 -0.10587314E+001
  0.16582456E+002  0.50803978E+000 -0.81668990E+000
  0.16543386E+002  0.55286400E+000 -0.44963140E+000
  0.16290496E+002  0.77546855E+000 -0.16170824E+000
  0.16209241E+002  0.84379225E+000  0.22846678E+000
  0.16550757E+002  0.53716546E+000  0.37616860E+000
  0.16683074E+002  0.43977871E+000  0.65091315E+000
  0.16741194E+002  0.37182262E+000  0.44858528E+000
  0.16830314E+002  0.10534443E+000 -0.78556063E-001
  0.17303802E+002 -0.50406775E+000 -0.26795934E+000
  0.16747377E+002  0.21790850E+000 -0.87538043E+000
  0.16676433E+002  0.40851659E+000 -0.66367020E+000
  0.16715047E+002  0.35955464E+000 -0.27873292E+000
  0.16637134E+002  0.40609549E+000 -0.80537395E-001
  0.16581101E+002  0.45512437E+000  0.12974380E+000
  0.16741132E+002  0.32970029E+000  0.19729997E+000
  0.16768858E+002  0.34597218E+000  0.51132131E+000
  0.16748340E+002  0.35826910E+000  0.42312460E+000
  0.16960271E+002  0.22884731E-001  0.95827288E-001
  0.17282656E+002 -0.43969047E+000 -0.21061272E+000
  0.16780929E+002  0.20365900E+000 -0.72011748E+000
  0.16763905E+002  0.31327331E+000 -0.52746013E+000
  0.16870373E+002  0.17908596E+000 -0.12610700E+000
  0.16946542E+002  0.60796861E-001 -0.47564485E-002
  0.16911013E+002  0.95138259E-001  0.40299352E-001
  0.16912681E+002  0.13550402E+000  0.35378264E-001
  0.16848237E+002  0.25643061E+000  0.38414393E+000
  0.16815088E+002  0.29867812E+000  0.31646288E+000
  0.16993307E+002 -0.44774175E-001  0.82433196E-001
  0.17212619E+002 -0.29261960E+000 -0.58917493E+000
  0.16872899E+002  0.13510844E+000 -0.43518818E+000
  0.16842925E+002  0.22257152E+000 -0.39399562E+000
  0.17005637E+002  0.15737182E-001  0.12816712E-001
  0.17195543E+002 -0.23605091E+000  0.57448453E-001
  0.17176656E+002 -0.21699890E+000 -0.34932537E-001