# vtk DataFile Version 2.0

ASCII
 
DATASET POLYDATA
POINTS 40 double
  0.84396906E-003  0.15477816E-003  0.11318284E+003
 -0.20537702E+002 -0.74019468E+000  0.10094118E+003
 -0.35021582E+002 -0.12623900E+001  0.88698753E+002
 -0.47151787E+002 -0.16999691E+001  0.76455696E+002
 -0.53216873E+002 -0.19190089E+001  0.64213100E+002
 -0.53216812E+002 -0.19189758E+001  0.51970677E+002
 -0.47151532E+002 -0.17004156E+001  0.39728178E+002
 -0.35021418E+002 -0.12626550E+001  0.27485012E+002
 -0.20537893E+002 -0.74033217E+000  0.15242444E+002
  0.15783294E-004  0.33315204E-005  0.30000098E+001
 -0.44962335E+001 -0.16200106E+000  0.11318273E+003
 -0.20697344E+002  0.36691668E+001  0.10094144E+003
 -0.35134404E+002  0.18324233E+001  0.88699313E+002
 -0.47240977E+002  0.75387979E+000  0.76455982E+002
 -0.53298521E+002  0.33528903E+000  0.64213178E+002
 -0.53299925E+002  0.37915780E+000  0.51970446E+002
 -0.47245010E+002  0.89819540E+000  0.39727666E+002
 -0.35144575E+002  0.21607490E+001  0.27484937E+002
 -0.20699890E+002  0.37567510E+001  0.15242437E+002
 -0.16211808E+000  0.44970816E+001  0.30000040E+001
 -0.43264219E+001 -0.80993894E-001  0.11318273E+003
 -0.20455902E+002  0.40413479E+001  0.10094144E+003
 -0.34923700E+002  0.24649256E+001  0.88699313E+002
 -0.47047736E+002  0.16046064E+001  0.76455982E+002
 -0.53111837E+002  0.12951849E+001  0.64213178E+002
 -0.53112453E+002  0.13390719E+001  0.51970446E+002
 -0.47049167E+002  0.17489713E+001  0.39727666E+002
 -0.34927954E+002  0.27933811E+001  0.27484937E+002
 -0.20456870E+002  0.41289637E+001  0.15242437E+002
  0.90904349E-001  0.44992720E+001  0.30000040E+001
 -0.41560000E+001  0.82663659E-015  0.11318291E+003
 -0.20207200E+002  0.44122505E+001  0.10094036E+003
 -0.34700324E+002  0.30968692E+001  0.88697816E+002
 -0.46839144E+002  0.24554692E+001  0.76455271E+002
 -0.52908554E+002  0.22557761E+001  0.64212725E+002
 -0.52908554E+002  0.22996360E+001  0.51970180E+002
 -0.46839144E+002  0.26002918E+001  0.39727634E+002
 -0.34700324E+002  0.34256185E+001  0.27485089E+002
 -0.20207200E+002  0.45000000E+001  0.15242543E+002
  0.34400000E+000  0.45000000E+001  0.29999979E+001
  
POLYGONS 27 135
      4      0      1     11     10
      4      1      2     12     11
      4      2      3     13     12
      4      3      4     14     13
      4      4      5     15     14
      4      5      6     16     15
      4      6      7     17     16
      4      7      8     18     17
      4      8      9     19     18
      4     10     11     21     20
      4     11     12     22     21
      4     12     13     23     22
      4     13     14     24     23
      4     14     15     25     24
      4     15     16     26     25
      4     16     17     27     26
      4     17     18     28     27
      4     18     19     29     28
      4     20     21     31     30
      4     21     22     32     31
      4     22     23     33     32
      4     23     24     34     33
      4     24     25     35     34
      4     25     26     36     35
      4     26     27     37     36
      4     27     28     38     37
      4     28     29     39     38
  
CELL_DATA 27
SCALARS Gamma double
LOOKUP_TABLE default
 -0.19333652E-002
 -0.49365860E-001
 -0.43286494E-001
 -0.45425457E-001
 -0.48083786E-001
 -0.46846859E-001
 -0.46336558E-001
 -0.51705978E-001
 -0.27013546E-001
 -0.19333652E-002
 -0.49365860E-001
 -0.43286494E-001
 -0.45425457E-001
 -0.48083786E-001
 -0.46846859E-001
 -0.46336558E-001
 -0.51705978E-001
 -0.27013546E-001
 -0.00000000E+000
 -0.00000000E+000
 -0.00000000E+000
 -0.00000000E+000
 -0.00000000E+000
 -0.00000000E+000
 -0.00000000E+000
 -0.00000000E+000
 -0.00000000E+000
POINT_DATA 40
VECTORS Uconv double
  0.00000000E+000  0.00000000E+000  0.00000000E+000
  0.00000000E+000  0.00000000E+000  0.00000000E+000
  0.00000000E+000  0.00000000E+000  0.00000000E+000
  0.00000000E+000  0.00000000E+000  0.00000000E+000
  0.00000000E+000  0.00000000E+000  0.00000000E+000
  0.00000000E+000  0.00000000E+000  0.00000000E+000
  0.00000000E+000  0.00000000E+000  0.00000000E+000
  0.00000000E+000  0.00000000E+000  0.00000000E+000
  0.00000000E+000  0.00000000E+000  0.00000000E+000
  0.00000000E+000  0.00000000E+000  0.00000000E+000
  0.00000000E+000  0.00000000E+000  0.00000000E+000
  0.00000000E+000  0.00000000E+000  0.00000000E+000
  0.00000000E+000  0.00000000E+000  0.00000000E+000
  0.00000000E+000  0.00000000E+000  0.00000000E+000
  0.00000000E+000  0.00000000E+000  0.00000000E+000
  0.00000000E+000  0.00000000E+000  0.00000000E+000
  0.00000000E+000  0.00000000E+000  0.00000000E+000
  0.00000000E+000  0.00000000E+000  0.00000000E+000
  0.00000000E+000  0.00000000E+000  0.00000000E+000
  0.00000000E+000  0.00000000E+000  0.00000000E+000
  0.17200000E+002  0.00000000E+000  0.00000000E+000
  0.17200000E+002  0.00000000E+000  0.00000000E+000
  0.17200000E+002  0.00000000E+000  0.00000000E+000
  0.17200000E+002  0.00000000E+000  0.00000000E+000
  0.17200000E+002  0.00000000E+000  0.00000000E+000
  0.17200000E+002  0.00000000E+000  0.00000000E+000
  0.17200000E+002  0.00000000E+000  0.00000000E+000
  0.17200000E+002  0.00000000E+000  0.00000000E+000
  0.17200000E+002  0.00000000E+000  0.00000000E+000
  0.17200000E+002  0.00000000E+000  0.00000000E+000
  0.17200000E+002  0.00000000E+000  0.00000000E+000
  0.17200000E+002  0.00000000E+000  0.00000000E+000
  0.17200000E+002  0.00000000E+000  0.00000000E+000
  0.17200000E+002  0.00000000E+000  0.00000000E+000
  0.17200000E+002  0.00000000E+000  0.00000000E+000
  0.17200000E+002  0.00000000E+000  0.00000000E+000
  0.17200000E+002  0.00000000E+000  0.00000000E+000
  0.17200000E+002  0.00000000E+000  0.00000000E+000
  0.17200000E+002  0.00000000E+000  0.00000000E+000
  0.17200000E+002  0.00000000E+000  0.00000000E+000
