# vtk DataFile Version 2.0
BldPointCP.BldA
ASCII
 
DATASET POLYDATA
POINTS 9 double
 -0.11424674E+002 -0.82456622E+000  0.10636192E+003
 -0.28018130E+002 -0.20250736E+001  0.94582253E+002
 -0.41248473E+002 -0.29846129E+001  0.82336553E+002
 -0.50204890E+002 -0.36360672E+001  0.70079809E+002
 -0.53101232E+002 -0.38473929E+001  0.58098258E+002
 -0.50204596E+002 -0.36380003E+001  0.46117104E+002
 -0.41248214E+002 -0.29874061E+001  0.33859725E+002
 -0.28019876E+002 -0.20266779E+001  0.21612548E+002
 -0.11431534E+002 -0.82624994E+000  0.98272111E+001
  
POINT_DATA 9
SCALARS Gamma_LL double
LOOKUP_TABLE default
 -0.78081661E+000
 -0.21249330E+002
 -0.18535453E+002
 -0.18775158E+002
 -0.19538183E+002
 -0.18845458E+002
 -0.18965860E+002
 -0.21652286E+002
 -0.11121842E+002
VECTORS Vind_CP double
  0.18270218E-002 -0.15792395E-001 -0.27898740E-002
 -0.44868458E-001 -0.31882824E-003  0.44005102E-001
 -0.41485959E-001 -0.14796416E-002  0.29455974E-001
 -0.60930760E-001 -0.26105489E-002  0.20909121E-001
 -0.79910971E-001 -0.34291224E-002 -0.70849346E-004
 -0.61646827E-001 -0.29796356E-002 -0.21420580E-001
 -0.42029392E-001 -0.18516938E-002 -0.30475136E-001
 -0.45867314E-001 -0.13341676E-002 -0.45469178E-001
 -0.17211079E-001 -0.14569753E-002 -0.74792577E-002
VECTORS Vtot_CP double
  0.15167359E+002  0.20564000E+002 -0.53991504E+000
  0.13196621E+002  0.50814676E+002 -0.97594542E+000
  0.11205390E+002  0.75016264E+002 -0.81260576E+000
  0.97170415E+001  0.91415481E+002 -0.58241437E+000
  0.92533055E+001  0.96769279E+002 -0.57102104E+000
  0.97462668E+001  0.91511330E+002 -0.55482860E+000
  0.11342792E+002  0.75146115E+002 -0.24108772E+000
  0.13454119E+002  0.50898194E+002  0.11999792E-001
  0.15692143E+002  0.20676281E+002  0.71783361E-002
VECTORS Vstr_CP double
  0.20344683E+001 -0.20579792E+002  0.53712516E+000
  0.39585101E+001 -0.50814995E+002  0.10199505E+001
  0.59531244E+001 -0.75017743E+002  0.84206173E+000
  0.74220277E+001 -0.91418092E+002  0.60332349E+000
  0.78667835E+001 -0.96772708E+002  0.57095019E+000
  0.73920863E+001 -0.91514310E+002  0.53340802E+000
  0.58151786E+001 -0.75147966E+002  0.21061258E+000
  0.37000132E+001 -0.50899528E+002 -0.57468970E-001
  0.14906462E+001 -0.20677738E+002 -0.14657594E-001
VECTORS Vwnd_CP double
  0.17200000E+002  0.00000000E+000  0.00000000E+000
  0.17200000E+002  0.00000000E+000  0.00000000E+000
  0.17200000E+002  0.00000000E+000  0.00000000E+000
  0.17200000E+002  0.00000000E+000  0.00000000E+000
  0.17200000E+002  0.00000000E+000  0.00000000E+000
  0.17200000E+002  0.00000000E+000  0.00000000E+000
  0.17200000E+002  0.00000000E+000  0.00000000E+000
  0.17200000E+002  0.00000000E+000  0.00000000E+000
  0.17200000E+002  0.00000000E+000  0.00000000E+000
VECTORS Tangent double
 -0.76303278E+000  0.64635978E+000 -0.12613685E-003
 -0.73787953E-001  0.99727375E+000  0.64166275E-003
 -0.74205071E-001  0.99724264E+000  0.84576207E-003
 -0.73214067E-001  0.99731618E+000  0.36283821E-003
 -0.72601419E-001  0.99736102E+000 -0.19033080E-003
 -0.71863269E-001  0.99741414E+000 -0.83962681E-003
 -0.71377802E-001  0.99744920E+000 -0.55059771E-003
 -0.71626914E-001  0.99743149E+000 -0.49604505E-004
 -0.71938470E-001  0.99740907E+000 -0.23909936E-005
VECTORS Normal double
 -0.41868874E+000 -0.49411664E+000  0.76193733E+000
 -0.64342635E+000 -0.48098469E-001  0.76399547E+000
 -0.70851642E+000 -0.53317671E-001  0.70367727E+000
 -0.89361880E+000 -0.65763056E-001  0.44398273E+000
 -0.99736103E+000 -0.72601416E-001  0.21894145E-004
 -0.89365419E+000 -0.64761219E-001 -0.44405874E+000
 -0.70877604E+000 -0.51108634E-001 -0.70357973E+000
 -0.64365163E+000 -0.46259492E-001 -0.76391926E+000
 -0.51042590E+000 -0.36816702E-001 -0.85913325E+000
VECTORS Orth double
 -0.49242332E+000 -0.58143597E+000 -0.64765075E+000
 -0.76194349E+000 -0.55960799E-001 -0.64522129E+000
 -0.70178208E+000 -0.51617186E-001 -0.71051923E+000
 -0.44281502E+000 -0.32181542E-001 -0.89603527E+000
 -0.80180808E-005 -0.19141807E-003 -0.99999998E+000
  0.44296485E+000  0.31161177E-001 -0.89599728E+000
  0.70181317E+000  0.49829724E-001 -0.71061612E+000
  0.76195942E+000  0.54685251E-001 -0.64531183E+000
  0.85690738E+000  0.61803511E-001 -0.51175196E+000
