# vtk DataFile Version 2.0

ASCII
 
DATASET POLYDATA
POINTS 170 double
  0.25160700E+000  0.58544289E-001  0.11318095E+003
  0.52274570E+001  0.19921707E+002  0.10079175E+003
  0.88137023E+001  0.34095481E+002  0.88717318E+002
  0.11844553E+002  0.45925285E+002  0.76553538E+002
  0.13311184E+002  0.51623704E+002  0.64215045E+002
  0.13309725E+002  0.51536740E+002  0.51951151E+002
  0.11833503E+002  0.45764469E+002  0.39652166E+002
  0.87988031E+001  0.34013777E+002  0.27404753E+002
  0.51496896E+001  0.19896532E+002  0.15263361E+002
  0.16967802E-003  0.41090574E-004  0.30001886E+001
  0.34532928E+001 -0.31035539E+001  0.11319946E+003
  0.94761577E+001  0.18731582E+002  0.10078188E+003
  0.11813355E+002  0.33325682E+002  0.88707784E+002
  0.14229269E+002  0.45340091E+002  0.76550509E+002
  0.15494381E+002  0.51056100E+002  0.64214784E+002
  0.15531686E+002  0.50944107E+002  0.51950706E+002
  0.14354439E+002  0.45126976E+002  0.39651258E+002
  0.12117644E+002  0.33165157E+002  0.27404809E+002
  0.95031366E+001  0.18757454E+002  0.15263897E+002
  0.43560283E+001 -0.11290525E+001  0.30407276E+001
  0.35689301E+001 -0.31629016E+001  0.11318892E+003
  0.99814330E+001  0.18551401E+002  0.10076306E+003
  0.12582312E+002  0.33104465E+002  0.88704159E+002
  0.15214015E+002  0.45072584E+002  0.76548794E+002
  0.16580656E+002  0.50761244E+002  0.64213457E+002
  0.16615893E+002  0.50648526E+002  0.51952204E+002
  0.15334908E+002  0.44856204E+002  0.39654039E+002
  0.12883298E+002  0.32937590E+002  0.27409013E+002
  0.10009657E+002  0.18579298E+002  0.15267837E+002
  0.45057053E+001 -0.12062258E+001  0.30506901E+001
  0.36523127E+001 -0.32247794E+001  0.11317908E+003
  0.10473027E+002  0.18372386E+002  0.10075835E+003
  0.13343391E+002  0.32862969E+002  0.88705031E+002
  0.16195138E+002  0.44768094E+002  0.76541880E+002
  0.17668927E+002  0.50441645E+002  0.64213016E+002
  0.17700822E+002  0.50338660E+002  0.51956048E+002
  0.16310694E+002  0.44565571E+002  0.39663034E+002
  0.13643451E+002  0.32693980E+002  0.27419676E+002
  0.10512402E+002  0.18393094E+002  0.15274846E+002
  0.46539096E+001 -0.12834513E+001  0.30538220E+001
  0.37356450E+001 -0.32860313E+001  0.11317441E+003
  0.10963679E+002  0.18190028E+002  0.10075766E+003
  0.14099523E+002  0.32607727E+002  0.88703470E+002
  0.17169457E+002  0.44448005E+002  0.76533740E+002
  0.18750194E+002  0.50104557E+002  0.64212599E+002
  0.18779519E+002  0.50011361E+002  0.51959804E+002
  0.17280922E+002  0.44259942E+002  0.39672900E+002
  0.14398790E+002  0.32438810E+002  0.27431369E+002
  0.11012660E+002  0.18203704E+002  0.15279202E+002
  0.48006837E+001 -0.13604175E+001  0.30566584E+001
  0.38209654E+001 -0.33431282E+001  0.11316978E+003
  0.11452820E+002  0.18002492E+002  0.10075786E+003
  0.14850935E+002  0.32340607E+002  0.88700458E+002
  0.18136094E+002  0.44111343E+002  0.76523817E+002
  0.19823819E+002  0.49749581E+002  0.64211402E+002
  0.19851108E+002  0.49665316E+002  0.51964538E+002
  0.18244626E+002  0.43937620E+002  0.39684154E+002
  0.15148591E+002  0.32170287E+002  0.27446403E+002
  0.11509748E+002  0.18009079E+002  0.15282969E+002
  0.49463812E+001 -0.14364729E+001  0.30590339E+001
  0.39055206E+001 -0.34006766E+001  0.11316468E+003
  0.11940496E+002  0.17810359E+002  0.10076288E+003
  0.15598303E+002  0.32064378E+002  0.88699486E+002
  0.19095313E+002  0.43759947E+002  0.76513038E+002
  0.20890960E+002  0.49380807E+002  0.64210008E+002
  0.20917108E+002  0.49305572E+002  0.51969123E+002
  0.19202437E+002  0.43601053E+002  0.39695416E+002
  0.15894436E+002  0.31894077E+002  0.27457758E+002
  0.12003701E+002  0.17809468E+002  0.15286202E+002
  0.50904991E+001 -0.15125485E+001  0.30608823E+001
  0.39910485E+001 -0.34561115E+001  0.11315878E+003
  0.12426516E+002  0.17613106E+002  0.10077077E+003
  0.16340807E+002  0.31777438E+002  0.88698257E+002
  0.20047468E+002  0.43395697E+002  0.76502545E+002
  0.21950837E+002  0.48997372E+002  0.64208749E+002
  0.21976684E+002  0.48930917E+002  0.51973150E+002
  0.20154828E+002  0.43252046E+002  0.39705056E+002
  0.16635617E+002  0.31608298E+002  0.27467859E+002
  0.12494523E+002  0.17605103E+002  0.15288504E+002
  0.52332909E+001 -0.15882207E+001  0.30623402E+001
  0.40777285E+001 -0.35096811E+001  0.11315592E+003
  0.12910612E+002  0.17411064E+002  0.10078599E+003
  0.17078714E+002  0.31481068E+002  0.88697758E+002
  0.20992520E+002  0.43019375E+002  0.76492469E+002
  0.23004961E+002  0.48604032E+002  0.64207986E+002
  0.23030509E+002  0.48543370E+002  0.51976738E+002
  0.21101553E+002  0.42891179E+002  0.39713251E+002
  0.17372189E+002  0.31313600E+002  0.27475805E+002
  0.12982288E+002  0.17396207E+002  0.15289080E+002
  0.53751189E+001 -0.16629883E+001  0.30644445E+001
  0.41657067E+001 -0.35612765E+001  0.11315189E+003
  0.13392542E+002  0.17203784E+002  0.10080627E+003
  0.17811457E+002  0.31174644E+002  0.88697279E+002
  0.21930343E+002  0.42631237E+002  0.76482516E+002
  0.24053475E+002  0.48201429E+002  0.64208010E+002
  0.24080904E+002  0.48150562E+002  0.51978322E+002
  0.22041621E+002  0.42515887E+002  0.39721434E+002
  0.18103632E+002  0.31009148E+002  0.27482791E+002
  0.13466927E+002  0.17182860E+002  0.15287805E+002
  0.55161881E+001 -0.17366935E+001  0.30613879E+001
  0.42546878E+001 -0.36119996E+001  0.11314919E+003
  0.13872175E+002  0.16991635E+002  0.10083278E+003
  0.18539216E+002  0.30859545E+002  0.88697522E+002
  0.22861499E+002  0.42233038E+002  0.76474316E+002
  0.25096180E+002  0.47789169E+002  0.64208299E+002
  0.25125638E+002  0.47746364E+002  0.51978820E+002
  0.22976574E+002  0.42131850E+002  0.39726020E+002
  0.18830143E+002  0.30696065E+002  0.27487349E+002
  0.13948337E+002  0.16965041E+002  0.15283923E+002
  0.56562731E+001 -0.18097244E+001  0.30580212E+001
  0.43460067E+001 -0.36587877E+001  0.11313514E+003
  0.14349206E+002  0.16774256E+002  0.10086256E+003
  0.19261743E+002  0.30536090E+002  0.88698563E+002
  0.23786277E+002  0.41826366E+002  0.76468667E+002
  0.26134413E+002  0.47371905E+002  0.64211010E+002
  0.26166767E+002  0.47337592E+002  0.51975574E+002
  0.23906024E+002  0.41738672E+002  0.39726106E+002
  0.19552104E+002  0.30375867E+002  0.27488093E+002
  0.14426321E+002  0.16742550E+002  0.15277728E+002
  0.57959177E+001 -0.18810197E+001  0.30545127E+001
  0.44388176E+001 -0.37042493E+001  0.11312433E+003
  0.14823038E+002  0.16550502E+002  0.10089077E+003
  0.19979057E+002  0.30205355E+002  0.88701138E+002
  0.24705189E+002  0.41412495E+002  0.76466641E+002
  0.27164729E+002  0.46940549E+002  0.64214410E+002
  0.27200017E+002  0.46913387E+002  0.51971323E+002
  0.24829061E+002  0.41335128E+002  0.39723440E+002
  0.20268605E+002  0.30046889E+002  0.27486859E+002
  0.14900615E+002  0.16515057E+002  0.15269780E+002
  0.59330798E+001 -0.19543675E+001  0.30505468E+001
  0.45328337E+001 -0.37504649E+001  0.11312447E+003
  0.15293198E+002  0.16319925E+002  0.10091600E+003
  0.20690456E+002  0.29866693E+002  0.88703250E+002
  0.25616601E+002  0.40987585E+002  0.76465838E+002
  0.28184804E+002  0.46490112E+002  0.64216930E+002
  0.28222580E+002  0.46468308E+002  0.51967498E+002
  0.25743627E+002  0.40917176E+002  0.39720143E+002
  0.20979202E+002  0.29708882E+002  0.27484213E+002
  0.15370870E+002  0.16282144E+002  0.15260788E+002
  0.60694956E+001 -0.20262776E+001  0.30469079E+001
  0.46301004E+001 -0.37922021E+001  0.11311968E+003
  0.15759451E+002  0.16083078E+002  0.10093478E+003
  0.21395125E+002  0.29519352E+002  0.88703663E+002
  0.26520182E+002  0.40550746E+002  0.76465824E+002
  0.29192819E+002  0.46017404E+002  0.64218410E+002
  0.29232001E+002  0.45998354E+002  0.51964659E+002
  0.26648584E+002  0.40483357E+002  0.39717185E+002
  0.21682475E+002  0.29359547E+002  0.27483597E+002
  0.15835310E+002  0.16040606E+002  0.15254789E+002
  0.62043031E+001 -0.20981271E+001  0.30435216E+001
  0.47291442E+001 -0.38345610E+001  0.11311899E+003
  0.16220984E+002  0.15840207E+002  0.10094974E+003
  0.22094418E+002  0.29166451E+002  0.88704986E+002
  0.27416187E+002  0.40102244E+002  0.76466015E+002
  0.30188839E+002  0.45523657E+002  0.64218659E+002
  0.30227667E+002  0.45503531E+002  0.51963457E+002
  0.27544280E+002  0.40034655E+002  0.39715195E+002
  0.22379980E+002  0.29003138E+002  0.27481075E+002
  0.16295903E+002  0.15795691E+002  0.15246557E+002
  0.63377055E+001 -0.21694970E+001  0.30411750E+001
  0.48304004E+001 -0.38747840E+001  0.11311407E+003
  0.16677944E+002  0.15592450E+002  0.10095763E+003
  0.22789073E+002  0.28808353E+002  0.88707790E+002
  0.28306126E+002  0.39645073E+002  0.76467003E+002
  0.31174607E+002  0.45012917E+002  0.64218328E+002
  0.31213573E+002  0.44993132E+002  0.51963527E+002
  0.28433172E+002  0.39575889E+002  0.39713418E+002
  0.23072373E+002  0.28640959E+002  0.27476829E+002
  0.16751643E+002  0.15545460E+002  0.15240684E+002
  0.64700989E+001 -0.22397877E+001  0.30399332E+001
  
POLYGONS 144 720
      4      0      1     11     10
      4      1      2     12     11
      4      2      3     13     12
      4      3      4     14     13
      4      4      5     15     14
      4      5      6     16     15
      4      6      7     17     16
      4      7      8     18     17
      4      8      9     19     18
      4     10     11     21     20
      4     11     12     22     21
      4     12     13     23     22
      4     13     14     24     23
      4     14     15     25     24
      4     15     16     26     25
      4     16     17     27     26
      4     17     18     28     27
      4     18     19     29     28
      4     20     21     31     30
      4     21     22     32     31
      4     22     23     33     32
      4     23     24     34     33
      4     24     25     35     34
      4     25     26     36     35
      4     26     27     37     36
      4     27     28     38     37
      4     28     29     39     38
      4     30     31     41     40
      4     31     32     42     41
      4     32     33     43     42
      4     33     34     44     43
      4     34     35     45     44
      4     35     36     46     45
      4     36     37     47     46
      4     37     38     48     47
      4     38     39     49     48
      4     40     41     51     50
      4     41     42     52     51
      4     42     43     53     52
      4     43     44     54     53
      4     44     45     55     54
      4     45     46     56     55
      4     46     47     57     56
      4     47     48     58     57
      4     48     49     59     58
      4     50     51     61     60
      4     51     52     62     61
      4     52     53     63     62
      4     53     54     64     63
      4     54     55     65     64
      4     55     56     66     65
      4     56     57     67     66
      4     57     58     68     67
      4     58     59     69     68
      4     60     61     71     70
      4     61     62     72     71
      4     62     63     73     72
      4     63     64     74     73
      4     64     65     75     74
      4     65     66     76     75
      4     66     67     77     76
      4     67     68     78     77
      4     68     69     79     78
      4     70     71     81     80
      4     71     72     82     81
      4     72     73     83     82
      4     73     74     84     83
      4     74     75     85     84
      4     75     76     86     85
      4     76     77     87     86
      4     77     78     88     87
      4     78     79     89     88
      4     80     81     91     90
      4     81     82     92     91
      4     82     83     93     92
      4     83     84     94     93
      4     84     85     95     94
      4     85     86     96     95
      4     86     87     97     96
      4     87     88     98     97
      4     88     89     99     98
      4     90     91    101    100
      4     91     92    102    101
      4     92     93    103    102
      4     93     94    104    103
      4     94     95    105    104
      4     95     96    106    105
      4     96     97    107    106
      4     97     98    108    107
      4     98     99    109    108
      4    100    101    111    110
      4    101    102    112    111
      4    102    103    113    112
      4    103    104    114    113
      4    104    105    115    114
      4    105    106    116    115
      4    106    107    117    116
      4    107    108    118    117
      4    108    109    119    118
      4    110    111    121    120
      4    111    112    122    121
      4    112    113    123    122
      4    113    114    124    123
      4    114    115    125    124
      4    115    116    126    125
      4    116    117    127    126
      4    117    118    128    127
      4    118    119    129    128
      4    120    121    131    130
      4    121    122    132    131
      4    122    123    133    132
      4    123    124    134    133
      4    124    125    135    134
      4    125    126    136    135
      4    126    127    137    136
      4    127    128    138    137
      4    128    129    139    138
      4    130    131    141    140
      4    131    132    142    141
      4    132    133    143    142
      4    133    134    144    143
      4    134    135    145    144
      4    135    136    146    145
      4    136    137    147    146
      4    137    138    148    147
      4    138    139    149    148
      4    140    141    151    150
      4    141    142    152    151
      4    142    143    153    152
      4    143    144    154    153
      4    144    145    155    154
      4    145    146    156    155
      4    146    147    157    156
      4    147    148    158    157
      4    148    149    159    158
      4    150    151    161    160
      4    151    152    162    161
      4    152    153    163    162
      4    153    154    164    163
      4    154    155    165    164
      4    155    156    166    165
      4    156    157    167    166
      4    157    158    168    167
      4    158    159    169    168
  
CELL_DATA 144
SCALARS Gamma double
LOOKUP_TABLE default
  0.11001858E+003
  0.48353335E+002
  0.16722724E+002
  0.20917772E+002
  0.42321775E+002
  0.36009231E+002
  0.24257075E+002
  0.34909828E+002
  0.42537994E+002
  0.11001858E+003
  0.48353335E+002
  0.16722724E+002
  0.20917772E+002
  0.42321775E+002
  0.36009231E+002
  0.24257075E+002
  0.34909828E+002
  0.42537994E+002
  0.11112772E+003
  0.51398107E+002
  0.19179802E+002
  0.23452183E+002
  0.44919203E+002
  0.38693043E+002
  0.27024695E+002
  0.38104920E+002
  0.45401503E+002
  0.11244064E+003
  0.52404588E+002
  0.19556516E+002
  0.25948359E+002
  0.48011656E+002
  0.41314340E+002
  0.28826573E+002
  0.40632908E+002
  0.48082909E+002
  0.11372478E+003
  0.53426427E+002
  0.20225088E+002
  0.28672640E+002
  0.51117529E+002
  0.43943908E+002
  0.30757073E+002
  0.43294595E+002
  0.50780150E+002
  0.11487674E+003
  0.54509432E+002
  0.21238922E+002
  0.31578756E+002
  0.54134381E+002
  0.46517198E+002
  0.32831361E+002
  0.46126820E+002
  0.53508508E+002
  0.11550391E+003
  0.55599070E+002
  0.22622397E+002
  0.34596947E+002
  0.56909105E+002
  0.48939084E+002
  0.35019932E+002
  0.49063237E+002
  0.56174020E+002
  0.11260791E+003
  0.55118972E+002
  0.23710119E+002
  0.36574781E+002
  0.57627379E+002
  0.49673087E+002
  0.36249274E+002
  0.50634756E+002
  0.57102687E+002
  0.10000560E+003
  0.49889924E+002
  0.22951288E+002
  0.35053800E+002
  0.52787068E+002
  0.45703218E+002
  0.34215870E+002
  0.47591404E+002
  0.52785673E+002
  0.80240252E+002
  0.41003710E+002
  0.20324579E+002
  0.30230284E+002
  0.43423174E+002
  0.37859980E+002
  0.29248693E+002
  0.40490246E+002
  0.44129981E+002
  0.57999852E+002
  0.30493256E+002
  0.16374694E+002
  0.23384678E+002
  0.31974723E+002
  0.28167340E+002
  0.22576558E+002
  0.31041105E+002
  0.33225043E+002
  0.35761694E+002
  0.19421458E+002
  0.11297451E+002
  0.15331624E+002
  0.19929530E+002
  0.17800053E+002
  0.14857698E+002
  0.20276385E+002
  0.21328000E+002
  0.15959946E+002
  0.89899100E+001
  0.56573961E+001
  0.72274289E+001
  0.89183685E+001
  0.81136264E+001
  0.70842443E+001
  0.95628548E+001
  0.98835952E+001
  0.32256505E+001
  0.18979344E+001
  0.12865983E+001
  0.15436262E+001
  0.18072758E+001
  0.16817938E+001
  0.15339126E+001
  0.20388992E+001
  0.20787311E+001
  0.37831218E-001
  0.23374740E-001
  0.16846978E-001
  0.18749696E-001
  0.20843277E-001
  0.19884976E-001
  0.19074689E-001
  0.25027292E-001
  0.25240302E-001
  0.00000000E+000
  0.00000000E+000
  0.00000000E+000
  0.00000000E+000
  0.00000000E+000
  0.00000000E+000
  0.00000000E+000
  0.00000000E+000
  0.00000000E+000
POINT_DATA 170
VECTORS Uconv double
  0.00000000E+000  0.00000000E+000  0.00000000E+000
  0.00000000E+000  0.00000000E+000  0.00000000E+000
  0.00000000E+000  0.00000000E+000  0.00000000E+000
  0.00000000E+000  0.00000000E+000  0.00000000E+000
  0.00000000E+000  0.00000000E+000  0.00000000E+000
  0.00000000E+000  0.00000000E+000  0.00000000E+000
  0.00000000E+000  0.00000000E+000  0.00000000E+000
  0.00000000E+000  0.00000000E+000  0.00000000E+000
  0.00000000E+000  0.00000000E+000  0.00000000E+000
  0.00000000E+000  0.00000000E+000  0.00000000E+000
  0.00000000E+000  0.00000000E+000  0.00000000E+000
  0.00000000E+000  0.00000000E+000  0.00000000E+000
  0.00000000E+000  0.00000000E+000  0.00000000E+000
  0.00000000E+000  0.00000000E+000  0.00000000E+000
  0.00000000E+000  0.00000000E+000  0.00000000E+000
  0.00000000E+000  0.00000000E+000  0.00000000E+000
  0.00000000E+000  0.00000000E+000  0.00000000E+000
  0.00000000E+000  0.00000000E+000  0.00000000E+000
  0.00000000E+000  0.00000000E+000  0.00000000E+000
  0.00000000E+000  0.00000000E+000  0.00000000E+000
  0.17209506E+002  0.23455746E+000 -0.10541891E+001
  0.16944090E+002 -0.64686572E+000 -0.18819495E+001
  0.17065007E+002 -0.30441160E+000 -0.36251751E+000
  0.17044220E+002 -0.38705068E+000 -0.17224051E+000
  0.16922514E+002 -0.75049626E+000 -0.13267123E+000
  0.16918086E+002 -0.75773545E+000  0.14982347E+000
  0.17002294E+002 -0.49129140E+000  0.27817390E+000
  0.17028764E+002 -0.39397023E+000  0.42041220E+000
  0.17022490E+002 -0.39551106E+000  0.39400684E+000
  0.17071875E+002  0.10991682E+000  0.99625484E+000
  0.17165953E+002  0.15845596E+000 -0.96594065E+000
  0.16954474E+002 -0.63697564E+000 -0.18747075E+001
  0.17060877E+002 -0.31583559E+000 -0.37648650E+000
  0.17020388E+002 -0.45967399E+000 -0.21128633E+000
  0.16869086E+002 -0.91516570E+000 -0.16777143E+000
  0.16866163E+002 -0.91562880E+000  0.18281729E+000
  0.16975358E+002 -0.57343456E+000  0.32839576E+000
  0.17019938E+002 -0.41667813E+000  0.44209058E+000
  0.16989868E+002 -0.50324706E+000  0.55168340E+000
  0.17074692E+002  0.11226030E+000  0.96924081E+000
  0.17095597E+002  0.21718403E-001 -0.65190473E+000
  0.16974778E+002 -0.60345102E+000 -0.18098174E+001
  0.17011533E+002 -0.48214046E+000 -0.57978112E+000
  0.17000789E+002 -0.51435028E+000 -0.24677900E+000
  0.16816320E+002 -0.10683774E+001 -0.19249499E+000
  0.16808492E+002 -0.10855529E+001  0.21769803E+000
  0.16947781E+002 -0.65470271E+000  0.38259380E+000
  0.17013076E+002 -0.43409611E+000  0.46223966E+000
  0.16991053E+002 -0.49305293E+000  0.55948996E+000
  0.17088113E+002  0.13466453E+000  0.93888684E+000
  0.17135547E+002  0.77381118E-001 -0.51451408E+000
  0.16994620E+002 -0.57588420E+000 -0.17795956E+001
  0.17008296E+002 -0.48998534E+000 -0.58968920E+000
  0.16988215E+002 -0.54695823E+000 -0.26733210E+000
  0.16769323E+002 -0.11973751E+001 -0.20643499E+000
  0.16751362E+002 -0.12477788E+001  0.25049901E+000
  0.16923738E+002 -0.72406210E+000  0.42582452E+000
  0.16973695E+002 -0.56203384E+000  0.62296962E+000
  0.16995331E+002 -0.47652132E+000  0.56333819E+000
  0.17107271E+002  0.16792205E+000  0.91265121E+000
  0.17141087E+002  0.90104702E-001 -0.51415765E+000
  0.17019442E+002 -0.53177657E+000 -0.16785843E+001
  0.17010323E+002 -0.48369175E+000 -0.58228515E+000
  0.16983236E+002 -0.55863700E+000 -0.27657125E+000
  0.16735214E+002 -0.12850085E+001 -0.21326749E+000
  0.16706692E+002 -0.13688731E+001  0.27433332E+000
  0.16910763E+002 -0.76269708E+000  0.44764782E+000
  0.16972959E+002 -0.56143909E+000  0.62243590E+000
  0.17003014E+002 -0.45368029E+000  0.56012832E+000
  0.17071153E+002  0.96058794E-001  0.87559278E+000
  0.17146953E+002  0.10380285E+000 -0.51435620E+000
  0.17042977E+002 -0.49155800E+000 -0.15642258E+001
  0.17018128E+002 -0.46305700E+000 -0.55752010E+000
  0.16987865E+002 -0.54660138E+000 -0.27247924E+000
  0.16726000E+002 -0.13034807E+001 -0.20826205E+000
  0.16690201E+002 -0.14094535E+001  0.28103694E+000
  0.16910464E+002 -0.76705036E+000  0.44428585E+000
  0.16980050E+002 -0.54278368E+000  0.60098237E+000
  0.17013731E+002 -0.42548306E+000  0.54962545E+000
  0.17076910E+002  0.10389059E+000  0.84815263E+000
  0.17155699E+002  0.12398612E+000 -0.51439125E+000
  0.17063892E+002 -0.45074270E+000 -0.14373757E+001
  0.17032196E+002 -0.42773088E+000 -0.53061752E+000
  0.17004638E+002 -0.50672621E+000 -0.24873880E+000
  0.16752195E+002 -0.12282975E+001 -0.19116816E+000
  0.16616415E+002 -0.16491069E+001  0.34176211E+000
  0.16929568E+002 -0.72202533E+000  0.41652021E+000
  0.16994641E+002 -0.50680826E+000  0.55898609E+000
  0.17031017E+002 -0.39454860E+000  0.53243756E+000
  0.17085903E+002  0.11772602E+000  0.82182338E+000
  0.17169020E+002  0.15360356E+000 -0.51297300E+000
  0.17073527E+002 -0.42648821E+000 -0.12777577E+001
  0.17052161E+002 -0.37982861E+000 -0.46675366E+000
  0.17012784E+002 -0.49540147E+000 -0.23896491E+000
  0.16758992E+002 -0.12249433E+001 -0.18817733E+000
  0.16711130E+002 -0.13791563E+001  0.28527771E+000
  0.16930953E+002 -0.74441812E+000  0.41619054E+000
  0.17016511E+002 -0.45511317E+000  0.49817891E+000
  0.17046592E+002 -0.35825043E+000  0.50387531E+000
  0.17096873E+002  0.13488276E+000  0.80156255E+000
  0.17152447E+002  0.12251930E+000 -0.49103392E+000
  0.17089149E+002 -0.37598816E+000 -0.10184106E+001
  0.17077210E+002 -0.32164947E+000 -0.39166072E+000
  0.17057107E+002 -0.39482601E+000 -0.18009077E+000
  0.16871399E+002 -0.93244060E+000 -0.13717209E+000
  0.16838611E+002 -0.10368624E+001  0.21134906E+000
  0.16997392E+002 -0.58122262E+000  0.31532378E+000
  0.17044457E+002 -0.39080004E+000  0.42219254E+000
  0.17064083E+002 -0.31893504E+000  0.45536743E+000
  0.17102985E+002  0.14287320E+000  0.78149033E+000
  0.17091920E+002  0.70183846E-001 -0.10317841E+001
  0.17103480E+002 -0.32063654E+000 -0.74271106E+000
  0.17106072E+002 -0.25654355E+000 -0.30882398E+000
  0.17110843E+002 -0.27565639E+000 -0.10596821E+000
  0.17001748E+002 -0.60199807E+000 -0.84695717E-001
  0.16982117E+002 -0.66182175E+000  0.13267356E+000
  0.17073065E+002 -0.40034162E+000  0.19769652E+000
  0.17076521E+002 -0.31817878E+000  0.33597644E+000
  0.17082607E+002 -0.27822473E+000  0.39715677E+000
  0.17160002E+002  0.24777476E+000  0.77588878E+000
  0.17094600E+002  0.10999254E+000 -0.12476147E+001
  0.17117176E+002 -0.26826206E+000 -0.51728140E+000
  0.17136551E+002 -0.18873415E+000 -0.22258852E+000
  0.17167284E+002 -0.15257937E+000 -0.31890768E-001
  0.17134631E+002 -0.27909117E+000 -0.30962538E-001
  0.17126244E+002 -0.30243712E+000  0.56749831E-001
  0.17149461E+002 -0.22272969E+000  0.84570952E-001
  0.17110447E+002 -0.24306425E+000  0.25054048E+000
  0.17101380E+002 -0.23718692E+000  0.33266005E+000
  0.17149588E+002  0.22425466E+000  0.74666936E+000
  0.17145358E+002  0.18244045E+000 -0.11083251E+001
  0.17132066E+002 -0.21302706E+000 -0.27756590E+000
  0.17167788E+002 -0.12194902E+000 -0.14469180E+000
  0.17219999E+002 -0.40011570E-001  0.37218984E-001
  0.17253612E+002 -0.48539127E-002  0.16856149E-001
  0.17253465E+002 -0.59825970E-003 -0.88435504E-002
  0.17220089E+002 -0.64705922E-001 -0.18573929E-001
  0.17145306E+002 -0.16771282E+000  0.15985552E+000
  0.17119803E+002 -0.19688975E+000  0.27185980E+000
  0.17144310E+002  0.21089750E+000  0.72683046E+000
  0.17149116E+002  0.19006268E+000 -0.10481897E+001
  0.17148363E+002 -0.16413920E+000 -0.91055810E-001
  0.17198189E+002 -0.59215853E-001 -0.64468231E-001
  0.17265263E+002  0.52694338E-001  0.97986558E-001
  0.17345463E+002  0.19362571E+000  0.53544932E-001
  0.17351651E+002  0.21369128E+000 -0.57261417E-001
  0.17276395E+002  0.64636522E-001 -0.10932896E+000
  0.17178179E+002 -0.99625855E-001  0.77239635E-001
  0.17138301E+002 -0.15818837E+000  0.19433086E+000
  0.17144093E+002  0.20793518E+000  0.69200104E+000
  0.17166480E+002  0.21802948E+000 -0.98086953E+000
  0.17167812E+002 -0.11400288E+000  0.19878318E-001
  0.17225499E+002 -0.42260483E-002  0.22320433E-002
  0.17298554E+002  0.11808279E+000  0.13836244E+000
  0.17403328E+002  0.30919535E+000  0.79822467E-001
  0.17414378E+002  0.33806858E+000 -0.88999432E-001
  0.17317940E+002  0.14898738E+000 -0.16475294E+000
  0.17207446E+002 -0.40254464E-001  0.48551061E-002
  0.17155966E+002 -0.12136067E+000  0.12524222E+000
  0.17141524E+002  0.19982047E+000  0.67741300E+000
  0.17152305E+002  0.21241953E+000 -0.12133021E+001
  0.17192960E+002 -0.60435053E-001  0.14361443E+000
  0.17248792E+002  0.41656897E-001  0.62319016E-001
  0.17322073E+002  0.15877081E+000  0.16429333E+000
  0.17430632E+002  0.35761470E+000  0.90208782E-001
  0.17443625E+002  0.38942310E+000 -0.10292697E+000
  0.17343637E+002  0.19899643E+000 -0.19730384E+000
  0.17231857E+002  0.83546590E-002 -0.50508412E-001
  0.17172845E+002 -0.88102552E-001  0.59962745E-001
  0.17144868E+002  0.19298839E+000  0.68028025E+000
