# vtk DataFile Version 2.0
BldPointCP.BldC
ASCII
 
DATASET POLYDATA
POINTS 9 double
  0.71389477E+001 -0.89944377E+001  0.10632919E+003
  0.17423146E+002 -0.22089637E+002  0.94556498E+002
  0.25658914E+002 -0.32542072E+002  0.82354712E+002
  0.31222653E+002 -0.39580953E+002  0.70095927E+002
  0.33008119E+002 -0.41830917E+002  0.58094501E+002
  0.31213772E+002 -0.39551155E+002  0.46099140E+002
  0.25649402E+002 -0.32503614E+002  0.33839224E+002
  0.17412262E+002 -0.22069517E+002  0.21614553E+002
  0.70990042E+001 -0.89984141E+001  0.98378034E+001
  
POINT_DATA 9
SCALARS Gamma_LL double
LOOKUP_TABLE default
  0.39962493E+002
  0.78966527E+002
  0.56220154E+002
  0.68284727E+002
  0.81646938E+002
  0.77511253E+002
  0.70346889E+002
  0.84502727E+002
  0.23600739E+002
VECTORS Vind_CP double
 -0.89438019E-001 -0.12540196E+000 -0.22444700E+000
 -0.74763869E-001  0.89283245E-001 -0.16729633E+000
 -0.87042071E-001  0.85923677E-001 -0.79908121E-001
 -0.20338166E+000  0.20041988E+000 -0.83733926E-001
 -0.31608992E+000  0.32775017E+000  0.34070673E-002
 -0.24115193E+000  0.24376758E+000  0.11369672E+000
 -0.12791546E+000  0.13465634E+000  0.13050360E+000
 -0.12185543E+000  0.13349624E+000  0.19507549E+000
 -0.61444895E-001 -0.76301239E-001  0.53282246E-001
VECTORS Vtot_CP double
 -0.41369367E+000 -0.13192342E+002  0.42291873E+000
 -0.23641417E+002 -0.30595005E+002  0.24099291E+000
 -0.42723006E+002 -0.44531304E+002 -0.74069821E+000
 -0.55156976E+002 -0.55237451E+002 -0.60574965E+000
 -0.58910915E+002 -0.59481069E+002  0.11505008E-001
 -0.54960518E+002 -0.56231252E+002  0.46239680E+000
 -0.42330135E+002 -0.45815792E+002  0.68225700E+000
 -0.23125408E+002 -0.31120385E+002  0.32045180E+000
  0.85702377E+000 -0.12926372E+002 -0.80375794E-001
VECTORS Vstr_CP double
  0.17524256E+002  0.13066940E+002 -0.64736572E+000
  0.40766654E+002  0.30684288E+002 -0.40828924E+000
  0.59835964E+002  0.44617228E+002  0.66079008E+000
  0.72153595E+002  0.55437871E+002  0.52201572E+000
  0.75794825E+002  0.59808820E+002 -0.80979411E-002
  0.71919367E+002  0.56475019E+002 -0.34870007E+000
  0.59402219E+002  0.45950448E+002 -0.55175340E+000
  0.40203552E+002  0.31253881E+002 -0.12537631E+000
  0.16281531E+002  0.12850070E+002  0.13365804E+000
VECTORS Vwnd_CP double
  0.17200000E+002 -0.00000000E+000  0.00000000E+000
  0.17200000E+002 -0.00000000E+000  0.00000000E+000
  0.17200000E+002 -0.00000000E+000  0.00000000E+000
  0.17200000E+002 -0.00000000E+000  0.00000000E+000
  0.17200000E+002 -0.00000000E+000  0.00000000E+000
  0.17200000E+002 -0.00000000E+000  0.00000000E+000
  0.17200000E+002 -0.00000000E+000  0.00000000E+000
  0.17200000E+002 -0.00000000E+000  0.00000000E+000
  0.17200000E+002 -0.00000000E+000  0.00000000E+000
VECTORS Tangent double
 -0.59411252E+000 -0.80438184E+000  0.41432987E-003
 -0.78458186E+000 -0.62002360E+000  0.14300336E-002
 -0.78742104E+000 -0.61641533E+000  0.48570309E-003
 -0.78608654E+000 -0.61811640E+000 -0.26300759E-003
 -0.78413503E+000 -0.62059021E+000 -0.22181373E-003
 -0.78523732E+000 -0.61919483E+000 -0.34133553E-003
 -0.78612647E+000 -0.61806567E+000 -0.58262764E-004
 -0.78479473E+000 -0.61975577E+000  0.82239430E-004
 -0.78458431E+000 -0.62001980E+000 -0.17028262E-002
VECTORS Normal double
  0.42451522E+000 -0.31310728E+000  0.84955910E+000
  0.39892139E+000 -0.50302937E+000  0.76669628E+000
  0.43714063E+000 -0.55785613E+000  0.70548183E+000
  0.55486430E+000 -0.70583336E+000  0.44036903E+000
  0.62058981E+000 -0.78413399E+000 -0.14754161E-002
  0.55552503E+000 -0.70425022E+000 -0.44206737E+000
  0.43853006E+000 -0.55770615E+000 -0.70473770E+000
  0.39870508E+000 -0.50498054E+000 -0.76552525E+000
  0.31880465E+000 -0.40106262E+000 -0.85878540E+000
VECTORS Orth double
  0.68324018E+000 -0.50490959E+000 -0.52749328E+000
  0.47465044E+000 -0.60210646E+000 -0.64200839E+000
  0.43459886E+000 -0.55572356E+000 -0.70872784E+000
  0.27238496E+000 -0.34602223E+000 -0.89781683E+000
 -0.74169708E-003  0.12945807E-002 -0.99999889E+000
 -0.27348544E+000  0.34731742E+000 -0.89698179E+000
 -0.43554169E+000  0.55403851E+000 -0.70946795E+000
 -0.47448022E+000  0.60074739E+000 -0.64340585E+000
 -0.53178102E+000  0.67433242E+000 -0.51233264E+000
