# vtk DataFile Version 2.0
BldPointCP.BldC
ASCII
 
DATASET POLYDATA
POINTS 9 double
  0.78331428E+001 -0.84456630E+001  0.10629758E+003
  0.19010828E+002 -0.20799395E+002  0.94529566E+002
  0.27990652E+002 -0.30671788E+002  0.82374449E+002
  0.34036840E+002 -0.37271033E+002  0.70115111E+002
  0.35957256E+002 -0.39333265E+002  0.58092509E+002
  0.34012597E+002 -0.37180270E+002  0.46084313E+002
  0.27961320E+002 -0.30572089E+002  0.33816343E+002
  0.18973891E+002 -0.20758791E+002  0.21606393E+002
  0.77312448E+001 -0.84611974E+001  0.98412552E+001
  
POINT_DATA 9
SCALARS Gamma_LL double
LOOKUP_TABLE default
  0.52815150E+002
  0.99432731E+002
  0.71986743E+002
  0.85862692E+002
  0.10129614E+003
  0.99094890E+002
  0.89541778E+002
  0.10454914E+003
  0.30038321E+002
VECTORS Vind_CP double
 -0.12357834E+000 -0.20862076E+000 -0.35084698E+000
 -0.13102257E+000  0.12855821E+000 -0.25208482E+000
 -0.17544504E+000  0.15976668E+000 -0.14541075E+000
 -0.42556021E+000  0.36070395E+000 -0.14322158E+000
 -0.63158132E+000  0.55023124E+000  0.11105636E-001
 -0.50491482E+000  0.43793767E+000  0.20466184E+000
 -0.25141116E+000  0.23485973E+000  0.23025315E+000
 -0.20763652E+000  0.19070189E+000  0.28624322E+000
 -0.78349754E-001 -0.63896062E-001  0.55476720E-001
VECTORS Vtot_CP double
 -0.12731312E+000 -0.14633960E+002  0.50792180E+000
 -0.21918761E+002 -0.33498970E+002  0.55578597E+000
 -0.39962866E+002 -0.48480115E+002 -0.57829308E+000
 -0.51554908E+002 -0.59885832E+002 -0.56550550E+000
 -0.54839951E+002 -0.64682055E+002  0.15036147E+000
 -0.51122562E+002 -0.61503509E+002  0.68369733E+000
 -0.39225954E+002 -0.50228062E+002  0.93722641E+000
 -0.20980158E+002 -0.34004855E+002  0.56202064E+000
  0.17920402E+001 -0.14070926E+002 -0.72781897E-002
VECTORS Vstr_CP double
  0.17203735E+002  0.14425339E+002 -0.85876878E+000
  0.38987738E+002  0.33627528E+002 -0.80787079E+000
  0.56987421E+002  0.48639882E+002  0.43288233E+000
  0.68329348E+002  0.60246536E+002  0.42228391E+000
  0.71408370E+002  0.65232286E+002 -0.13925583E+000
  0.67817647E+002  0.61941447E+002 -0.47903549E+000
  0.56174543E+002  0.50462922E+002 -0.70697326E+000
  0.37972522E+002  0.34195557E+002 -0.27577742E+000
  0.15329610E+002  0.14007030E+002  0.62754910E-001
VECTORS Vwnd_CP double
  0.17200000E+002  0.00000000E+000  0.00000000E+000
  0.17200000E+002  0.00000000E+000  0.00000000E+000
  0.17200000E+002  0.00000000E+000  0.00000000E+000
  0.17200000E+002  0.00000000E+000  0.00000000E+000
  0.17200000E+002  0.00000000E+000  0.00000000E+000
  0.17200000E+002  0.00000000E+000  0.00000000E+000
  0.17200000E+002  0.00000000E+000  0.00000000E+000
  0.17200000E+002  0.00000000E+000  0.00000000E+000
  0.17200000E+002  0.00000000E+000  0.00000000E+000
VECTORS Tangent double
 -0.53145897E+000 -0.84708400E+000  0.26188208E-003
 -0.73642711E+000 -0.67650856E+000  0.33590740E-002
 -0.74409326E+000 -0.66807396E+000  0.15526859E-002
 -0.74204416E+000 -0.67035062E+000 -0.71677946E-003
 -0.73769603E+000 -0.67513292E+000 -0.31519446E-003
 -0.73933793E+000 -0.67333456E+000 -0.73957494E-004
 -0.74060388E+000 -0.67194186E+000  0.19965360E-003
 -0.73790109E+000 -0.67490883E+000  0.22173701E-003
 -0.73750291E+000 -0.67533502E+000 -0.34737068E-002
VECTORS Normal double
  0.44940482E+000 -0.28169368E+000  0.84775231E+000
  0.43430386E+000 -0.46895162E+000  0.76906731E+000
  0.47291266E+000 -0.52508034E+000  0.70756219E+000
  0.60338534E+000 -0.66838207E+000  0.43496153E+000
  0.67512691E+000 -0.73768732E+000 -0.45911805E-002
  0.60494600E+000 -0.66419737E+000 -0.43918356E+000
  0.47649528E+000 -0.52539515E+000 -0.70491999E+000
  0.43312104E+000 -0.47379808E+000 -0.76676042E+000
  0.34832947E+000 -0.37597820E+000 -0.85866581E+000
VECTORS Orth double
  0.71804365E+000 -0.45066326E+000 -0.53039226E+000
  0.51870538E+000 -0.56782088E+000 -0.63915897E+000
  0.47188859E+000 -0.52722654E+000 -0.70664937E+000
  0.29205581E+000 -0.32232816E+000 -0.90044875E+000
 -0.28671421E-002  0.35996919E-002 -0.99998941E+000
 -0.29566835E+000  0.32474980E+000 -0.89839735E+000
 -0.47377014E+000  0.52197134E+000 -0.70928680E+000
 -0.51759844E+000  0.56569731E+000 -0.64193333E+000
 -0.57858105E+000  0.63447853E+000 -0.51252411E+000
