# vtk DataFile Version 2.0

ASCII
 
DATASET POLYDATA
POINTS 40 double
  0.84396906E-003  0.15477816E-003  0.11318284E+003
  0.10910134E+002 -0.17416533E+002  0.10093967E+003
  0.18604816E+002 -0.29700173E+002  0.88698482E+002
  0.25049515E+002 -0.39987850E+002  0.76455979E+002
  0.28271717E+002 -0.45131543E+002  0.64213128E+002
  0.28271752E+002 -0.45131612E+002  0.51970097E+002
  0.25049509E+002 -0.39987727E+002  0.39727348E+002
  0.18604793E+002 -0.29699716E+002  0.27484773E+002
  0.10910082E+002 -0.17416375E+002  0.15243236E+002
  0.15783294E-004  0.33315204E-005  0.30000098E+001
 -0.21074162E+001 -0.39754256E+001  0.11318286E+003
  0.71710136E+001 -0.19758954E+002  0.10093988E+003
  0.15980419E+002 -0.31344295E+002  0.88698642E+002
  0.22968647E+002 -0.41291428E+002  0.76456034E+002
  0.26360129E+002 -0.46329189E+002  0.64213152E+002
  0.26323039E+002 -0.46352613E+002  0.51970026E+002
  0.22845883E+002 -0.41368144E+002  0.39727260E+002
  0.15701796E+002 -0.31518361E+002  0.27484770E+002
  0.70965509E+001 -0.19805304E+002  0.15243237E+002
 -0.38135013E+001 -0.23889478E+001  0.29997237E+001
 -0.20066751E+001 -0.39368244E+001  0.11318286E+003
  0.69859750E+001 -0.19884904E+002  0.10093988E+003
  0.15585289E+002 -0.31627030E+002  0.88698642E+002
  0.22393228E+002 -0.41698415E+002  0.76456034E+002
  0.25693425E+002 -0.46796442E+002  0.64213152E+002
  0.25655920E+002 -0.46819194E+002  0.51970026E+002
  0.22269105E+002 -0.41772908E+002  0.39727260E+002
  0.15303577E+002 -0.31796052E+002  0.27484770E+002
  0.69106899E+001 -0.19929906E+002  0.15243237E+002
 -0.36839096E+001 -0.23198760E+001  0.29997237E+001
 -0.19060000E+001 -0.38971143E+001  0.11318291E+003
  0.67984790E+001 -0.20003986E+002  0.10094036E+003
  0.15184195E+002 -0.31897709E+002  0.88697816E+002
  0.21809073E+002 -0.42089536E+002  0.76455271E+002
  0.25016718E+002 -0.47245953E+002  0.64212725E+002
  0.24978734E+002 -0.47267883E+002  0.51970180E+002
  0.21683653E+002 -0.42161947E+002  0.39727634E+002
  0.14899489E+002 -0.32062084E+002  0.27485089E+002
  0.67224857E+001 -0.20047861E+002  0.15242543E+002
 -0.35531143E+001 -0.22500000E+001  0.29999979E+001
  
POLYGONS 27 135
      4      0      1     11     10
      4      1      2     12     11
      4      2      3     13     12
      4      3      4     14     13
      4      4      5     15     14
      4      5      6     16     15
      4      6      7     17     16
      4      7      8     18     17
      4      8      9     19     18
      4     10     11     21     20
      4     11     12     22     21
      4     12     13     23     22
      4     13     14     24     23
      4     14     15     25     24
      4     15     16     26     25
      4     16     17     27     26
      4     17     18     28     27
      4     18     19     29     28
      4     20     21     31     30
      4     21     22     32     31
      4     22     23     33     32
      4     23     24     34     33
      4     24     25     35     34
      4     25     26     36     35
      4     26     27     37     36
      4     27     28     38     37
      4     28     29     39     38
  
CELL_DATA 27
SCALARS Gamma double
LOOKUP_TABLE default
  0.12044248E-001
  0.27192721E-001
  0.22275488E-001
  0.23642606E-001
  0.25408316E-001
  0.24656424E-001
  0.24333978E-001
  0.28786184E-001
  0.75452781E-002
  0.12044248E-001
  0.27192721E-001
  0.22275488E-001
  0.23642606E-001
  0.25408316E-001
  0.24656424E-001
  0.24333978E-001
  0.28786184E-001
  0.75452781E-002
  0.00000000E+000
  0.00000000E+000
  0.00000000E+000
  0.00000000E+000
  0.00000000E+000
  0.00000000E+000
  0.00000000E+000
  0.00000000E+000
  0.00000000E+000
POINT_DATA 40
VECTORS Uconv double
  0.00000000E+000  0.00000000E+000  0.00000000E+000
  0.00000000E+000  0.00000000E+000  0.00000000E+000
  0.00000000E+000  0.00000000E+000  0.00000000E+000
  0.00000000E+000  0.00000000E+000  0.00000000E+000
  0.00000000E+000  0.00000000E+000  0.00000000E+000
  0.00000000E+000  0.00000000E+000  0.00000000E+000
  0.00000000E+000  0.00000000E+000  0.00000000E+000
  0.00000000E+000  0.00000000E+000  0.00000000E+000
  0.00000000E+000  0.00000000E+000  0.00000000E+000
  0.00000000E+000  0.00000000E+000  0.00000000E+000
  0.00000000E+000  0.00000000E+000  0.00000000E+000
  0.00000000E+000  0.00000000E+000  0.00000000E+000
  0.00000000E+000  0.00000000E+000  0.00000000E+000
  0.00000000E+000  0.00000000E+000  0.00000000E+000
  0.00000000E+000  0.00000000E+000  0.00000000E+000
  0.00000000E+000  0.00000000E+000  0.00000000E+000
  0.00000000E+000  0.00000000E+000  0.00000000E+000
  0.00000000E+000  0.00000000E+000  0.00000000E+000
  0.00000000E+000  0.00000000E+000  0.00000000E+000
  0.00000000E+000  0.00000000E+000  0.00000000E+000
  0.17200000E+002  0.00000000E+000  0.00000000E+000
  0.17200000E+002  0.00000000E+000  0.00000000E+000
  0.17200000E+002  0.00000000E+000  0.00000000E+000
  0.17200000E+002  0.00000000E+000  0.00000000E+000
  0.17200000E+002  0.00000000E+000  0.00000000E+000
  0.17200000E+002  0.00000000E+000  0.00000000E+000
  0.17200000E+002  0.00000000E+000  0.00000000E+000
  0.17200000E+002  0.00000000E+000  0.00000000E+000
  0.17200000E+002  0.00000000E+000  0.00000000E+000
  0.17200000E+002  0.00000000E+000  0.00000000E+000
  0.17200000E+002  0.00000000E+000  0.00000000E+000
  0.17200000E+002  0.00000000E+000  0.00000000E+000
  0.17200000E+002  0.00000000E+000  0.00000000E+000
  0.17200000E+002  0.00000000E+000  0.00000000E+000
  0.17200000E+002  0.00000000E+000  0.00000000E+000
  0.17200000E+002  0.00000000E+000  0.00000000E+000
  0.17200000E+002  0.00000000E+000  0.00000000E+000
  0.17200000E+002  0.00000000E+000  0.00000000E+000
  0.17200000E+002  0.00000000E+000  0.00000000E+000
  0.17200000E+002  0.00000000E+000  0.00000000E+000
