# vtk DataFile Version 2.0
BldPointCP.BldC
ASCII
 
DATASET POLYDATA
POINTS 9 double
  0.76608829E+001 -0.85878979E+001  0.10630625E+003
  0.18620662E+002 -0.21132974E+002  0.94537813E+002
  0.27418498E+002 -0.31154493E+002  0.82370464E+002
  0.33347587E+002 -0.37866308E+002  0.70110725E+002
  0.35236369E+002 -0.39977748E+002  0.58093475E+002
  0.33328328E+002 -0.37793489E+002  0.46088456E+002
  0.27395532E+002 -0.31071860E+002  0.33822571E+002
  0.18591942E+002 -0.21097443E+002  0.21608953E+002
  0.75767649E+001 -0.85998297E+001  0.98406381E+001
  
POINT_DATA 9
SCALARS Gamma_LL double
LOOKUP_TABLE default
  0.51362615E+002
  0.97664204E+002
  0.70114800E+002
  0.84386465E+002
  0.10029189E+003
  0.97227542E+002
  0.87700468E+002
  0.10305057E+003
  0.29439371E+002
VECTORS Vind_CP double
 -0.11783177E+000 -0.19459628E+000 -0.33064960E+000
 -0.11859347E+000  0.12178594E+000 -0.23679127E+000
 -0.15356162E+000  0.14205039E+000 -0.12929329E+000
 -0.37369251E+000  0.32601751E+000 -0.13087793E+000
 -0.56148737E+000  0.50870798E+000  0.89157875E-002
 -0.44411354E+000  0.39720874E+000  0.18552544E+000
 -0.22229489E+000  0.21309018E+000  0.20797064E+000
 -0.18964833E+000  0.18149993E+000  0.27024275E+000
 -0.74885827E-001 -0.70044789E-001  0.55840407E-001
VECTORS Vtot_CP double
 -0.22603230E+000 -0.14290143E+002  0.48336163E+000
 -0.22377119E+002 -0.32765960E+002  0.46751868E+000
 -0.40680185E+002 -0.47472515E+002 -0.65067684E+000
 -0.52470511E+002 -0.58743382E+002 -0.60121452E+000
 -0.55880114E+002 -0.63441854E+002  0.10951337E+000
 -0.52124412E+002 -0.60238693E+002  0.63469662E+000
 -0.40044803E+002 -0.49147681E+002  0.88920791E+000
 -0.21544594E+002 -0.33290622E+002  0.51963914E+000
  0.15494332E+001 -0.13793575E+002 -0.20677350E-001
VECTORS Vstr_CP double
  0.17308201E+002  0.14095547E+002 -0.81401123E+000
  0.39458526E+002  0.32887746E+002 -0.70430995E+000
  0.57726624E+002  0.47614566E+002  0.52138355E+000
  0.69296819E+002  0.59069399E+002  0.47033659E+000
  0.72518627E+002  0.63950562E+002 -0.10059758E+000
  0.68880298E+002  0.60635901E+002 -0.44917118E+000
  0.57022508E+002  0.49360771E+002 -0.68123727E+000
  0.38554946E+002  0.33472122E+002 -0.24939640E+000
  0.15575681E+002  0.13723530E+002  0.76517757E-001
VECTORS Vwnd_CP double
  0.17200000E+002 -0.00000000E+000  0.00000000E+000
  0.17200000E+002 -0.00000000E+000  0.00000000E+000
  0.17200000E+002 -0.00000000E+000  0.00000000E+000
  0.17200000E+002 -0.00000000E+000  0.00000000E+000
  0.17200000E+002 -0.00000000E+000  0.00000000E+000
  0.17200000E+002 -0.00000000E+000  0.00000000E+000
  0.17200000E+002 -0.00000000E+000  0.00000000E+000
  0.17200000E+002 -0.00000000E+000  0.00000000E+000
  0.17200000E+002 -0.00000000E+000  0.00000000E+000
VECTORS Tangent double
 -0.54747286E+000 -0.83682336E+000  0.34837552E-003
 -0.74893829E+000 -0.66263368E+000  0.28373334E-002
 -0.75526480E+000 -0.65541867E+000  0.12046789E-002
 -0.75329698E+000 -0.65768021E+000 -0.62694096E-003
 -0.74955604E+000 -0.66194082E+000 -0.30733614E-003
 -0.75110576E+000 -0.66018187E+000 -0.18259717E-003
 -0.75233955E+000 -0.65877552E+000  0.11607592E-003
 -0.74998545E+000 -0.66145430E+000  0.18363103E-003
 -0.74962514E+000 -0.66185578E+000 -0.30131541E-002
VECTORS Normal double
  0.44334983E+000 -0.28969853E+000  0.84824271E+000
  0.42562768E+000 -0.47777289E+000  0.76848822E+000
  0.46418303E+000 -0.53359699E+000  0.70697126E+000
  0.59155368E+000 -0.67797263E+000  0.43636837E+000
  0.66193731E+000 -0.74955037E+000 -0.36388399E-002
  0.59292778E+000 -0.67446739E+000 -0.43992089E+000
  0.46721704E+000 -0.53369876E+000 -0.70489280E+000
  0.42475108E+000 -0.48181390E+000 -0.76644757E+000
  0.34113754E+000 -0.38246689E+000 -0.85868752E+000
VECTORS Orth double
  0.70972839E+000 -0.46454432E+000 -0.52960758E+000
  0.50787057E+000 -0.57675789E+000 -0.63985765E+000
  0.46271935E+000 -0.53450970E+000 -0.70724125E+000
  0.28741589E+000 -0.32834411E+000 -0.89976789E+000
 -0.21783327E-002  0.29309516E-002 -0.99999333E+000
 -0.29030464E+000  0.33053538E+000 -0.89803651E+000
 -0.46442807E+000  0.53026450E+000 -0.70931384E+000
 -0.50705852E+000  0.57474653E+000 -0.64230685E+000
 -0.56717486E+000  0.64472165E+000 -0.51249065E+000
