# vtk DataFile Version 2.0

ASCII
 
DATASET POLYDATA
POINTS 20 double
  0.88817842E-015  0.16653345E-014  0.11318291E+003
  0.10275600E+002  0.17797861E+002  0.10094036E+003
  0.17522162E+002  0.30349275E+002  0.88697816E+002
  0.23591572E+002  0.40861801E+002  0.76455271E+002
  0.26626277E+002  0.46118065E+002  0.64212725E+002
  0.26626277E+002  0.46118065E+002  0.51970180E+002
  0.23591572E+002  0.40861801E+002  0.39727634E+002
  0.17522162E+002  0.30349275E+002  0.27485089E+002
  0.10275600E+002  0.17797861E+002  0.15242543E+002
  0.95479180E-014  0.18207658E-013  0.29999979E+001
  0.22500000E+001 -0.38971143E+001  0.11318291E+003
  0.14096721E+002  0.15591736E+002  0.10094036E+003
  0.20204129E+002  0.28800840E+002  0.88697816E+002
  0.25718071E+002  0.39634067E+002  0.76455271E+002
  0.28579837E+002  0.44990177E+002  0.64212725E+002
  0.28617820E+002  0.44968247E+002  0.51970180E+002
  0.25843491E+002  0.39561656E+002  0.39727634E+002
  0.20488835E+002  0.28636465E+002  0.27485089E+002
  0.14172714E+002  0.15547861E+002  0.15242543E+002
  0.38971143E+001 -0.22500000E+001  0.29999979E+001
  
POLYGONS 9 45
      4      0      1     11     10
      4      1      2     12     11
      4      2      3     13     12
      4      3      4     14     13
      4      4      5     15     14
      4      5      6     16     15
      4      6      7     17     16
      4      7      8     18     17
      4      8      9     19     18
  
CELL_DATA 9
SCALARS Gamma double
LOOKUP_TABLE default
  0.00000000E+000
  0.00000000E+000
  0.00000000E+000
  0.00000000E+000
  0.00000000E+000
  0.00000000E+000
  0.00000000E+000
  0.00000000E+000
  0.00000000E+000
POINT_DATA 20
VECTORS Uconv double
  0.00000000E+000  0.00000000E+000  0.00000000E+000
  0.00000000E+000  0.00000000E+000  0.00000000E+000
  0.00000000E+000  0.00000000E+000  0.00000000E+000
  0.00000000E+000  0.00000000E+000  0.00000000E+000
  0.00000000E+000  0.00000000E+000  0.00000000E+000
  0.00000000E+000  0.00000000E+000  0.00000000E+000
  0.00000000E+000  0.00000000E+000  0.00000000E+000
  0.00000000E+000  0.00000000E+000  0.00000000E+000
  0.00000000E+000  0.00000000E+000  0.00000000E+000
  0.00000000E+000  0.00000000E+000  0.00000000E+000
  0.00000000E+000  0.00000000E+000  0.00000000E+000
  0.00000000E+000  0.00000000E+000  0.00000000E+000
  0.00000000E+000  0.00000000E+000  0.00000000E+000
  0.00000000E+000  0.00000000E+000  0.00000000E+000
  0.00000000E+000  0.00000000E+000  0.00000000E+000
  0.00000000E+000  0.00000000E+000  0.00000000E+000
  0.00000000E+000  0.00000000E+000  0.00000000E+000
  0.00000000E+000  0.00000000E+000  0.00000000E+000
  0.00000000E+000  0.00000000E+000  0.00000000E+000
  0.00000000E+000  0.00000000E+000  0.00000000E+000
