# vtk DataFile Version 2.0
BldPointCP.BldC
ASCII
 
DATASET POLYDATA
POINTS 9 double
  0.66125207E+001 -0.93696305E+001  0.10634623E+003
  0.16187388E+002 -0.22980908E+002  0.94566656E+002
  0.23837604E+002 -0.33841238E+002  0.82337860E+002
  0.29014422E+002 -0.41184559E+002  0.70081970E+002
  0.30684632E+002 -0.43553229E+002  0.58093437E+002
  0.29012064E+002 -0.41178352E+002  0.46106546E+002
  0.23835272E+002 -0.33831155E+002  0.33850979E+002
  0.16185105E+002 -0.22973933E+002  0.21615727E+002
  0.66010284E+001 -0.93700256E+001  0.98331277E+001
  
POINT_DATA 9
SCALARS Gamma_LL double
LOOKUP_TABLE default
  0.12817547E+002
  0.26501076E+002
  0.19493831E+002
  0.22751584E+002
  0.26319041E+002
  0.24993632E+002
  0.23411769E+002
  0.28743891E+002
  0.78218940E+001
VECTORS Vind_CP double
 -0.29506338E-001 -0.26486424E-001 -0.55727973E-001
 -0.21300254E-001  0.29219945E-001 -0.51274588E-001
 -0.23174385E-001  0.25389190E-001 -0.24518221E-001
 -0.48244248E-001  0.54889551E-001 -0.23623455E-001
 -0.73578835E-001  0.87778493E-001  0.44543019E-003
 -0.55654492E-001  0.64606415E-001  0.29683526E-001
 -0.32580789E-001  0.38378422E-001  0.37087050E-001
 -0.33793724E-001  0.42396576E-001  0.61201708E-001
 -0.23576811E-001 -0.30092525E-001  0.19878291E-001
VECTORS Vtot_CP double
 -0.42796113E+000 -0.12019336E+002  0.36767037E+000
 -0.24783079E+002 -0.28514349E+002  0.10291526E+000
 -0.44634150E+002 -0.41723147E+002 -0.58373633E+000
 -0.57750850E+002 -0.51498811E+002 -0.43739727E+000
 -0.61812746E+002 -0.55048837E+002 -0.55433752E-001
 -0.57608649E+002 -0.51931236E+002  0.24185507E+000
 -0.44421776E+002 -0.42406590E+002  0.37511244E+000
 -0.24552530E+002 -0.28910616E+002  0.26305826E-001
  0.24943664E+000 -0.11955178E+002 -0.17218448E+000
VECTORS Vstr_CP double
  0.17598455E+002  0.11992850E+002 -0.42339834E+000
  0.41961778E+002  0.28543569E+002 -0.15418985E+000
  0.61810976E+002  0.41748537E+002  0.55921811E+000
  0.74902605E+002  0.51553700E+002  0.41377382E+000
  0.78939167E+002  0.55136615E+002  0.55879182E-001
  0.74752995E+002  0.51995842E+002 -0.21217154E+000
  0.61589195E+002  0.42444969E+002 -0.33802539E+000
  0.41718736E+002  0.28953012E+002  0.34895882E-001
  0.16926987E+002  0.11925085E+002  0.19206277E+000
VECTORS Vwnd_CP double
  0.17200000E+002  0.00000000E+000  0.00000000E+000
  0.17200000E+002  0.00000000E+000  0.00000000E+000
  0.17200000E+002  0.00000000E+000  0.00000000E+000
  0.17200000E+002  0.00000000E+000  0.00000000E+000
  0.17200000E+002  0.00000000E+000  0.00000000E+000
  0.17200000E+002  0.00000000E+000  0.00000000E+000
  0.17200000E+002  0.00000000E+000  0.00000000E+000
  0.17200000E+002  0.00000000E+000  0.00000000E+000
  0.17200000E+002  0.00000000E+000  0.00000000E+000
VECTORS Tangent double
 -0.63819251E+000 -0.76987678E+000  0.25747783E-003
 -0.81735804E+000 -0.57612983E+000  0.50090978E-003
 -0.81795923E+000 -0.57527614E+000  0.23493439E-003
 -0.81753207E+000 -0.57588308E+000  0.38421939E-004
 -0.81695877E+000 -0.57669607E+000 -0.99302450E-004
 -0.81742861E+000 -0.57602986E+000 -0.26215277E-003
 -0.81776140E+000 -0.57555737E+000 -0.10623932E-003
 -0.81735536E+000 -0.57613386E+000  0.12652259E-004
 -0.81731371E+000 -0.57619259E+000 -0.62924827E-003
VECTORS Normal double
  0.40504121E+000 -0.33547612E+000  0.85052772E+000
  0.37131589E+000 -0.52612239E+000  0.76506192E+000
  0.40840421E+000 -0.58040384E+000  0.70451216E+000
  0.51622338E+000 -0.73280871E+000  0.44328864E+000
  0.57669607E+000 -0.81695872E+000 -0.30524762E-003
  0.51631343E+000 -0.73248468E+000 -0.44371910E+000
  0.40857256E+000 -0.58037661E+000 -0.70443698E+000
  0.37126493E+000 -0.52672664E+000 -0.76467078E+000
  0.29549352E+000 -0.41821158E+000 -0.85894276E+000
VECTORS Orth double
  0.65471516E+000 -0.54290471E+000 -0.52593017E+000
  0.44051146E+000 -0.62551551E+000 -0.64395652E+000
  0.40515268E+000 -0.57635818E+000 -0.70969188E+000
  0.25525427E+000 -0.36242251E+000 -0.89637893E+000
 -0.94909099E-004  0.30664205E-003 -0.99999995E+000
 -0.25540343E+000  0.36284404E+000 -0.89616588E+000
 -0.40538223E+000  0.57610477E+000 -0.70976654E+000
 -0.44055939E+000  0.62500306E+000 -0.64442114E+000
 -0.49465329E+000  0.70221163E+000 -0.51207123E+000
