# vtk DataFile Version 2.0
BldPointCP.BldA
ASCII
 
DATASET POLYDATA
POINTS 9 double
 -0.20498030E-014  0.12739646E+002  0.10611935E+003
 -0.46605222E-014  0.29372149E+002  0.94510930E+002
 -0.67580140E-014  0.41968132E+002  0.82337634E+002
 -0.81755646E-014  0.50519668E+002  0.70091003E+002
 -0.85487173E-014  0.53290014E+002  0.58091453E+002
 -0.81755645E-014  0.50519667E+002  0.46091901E+002
 -0.68113589E-014  0.41968160E+002  0.33845273E+002
 -0.47188282E-014  0.29372180E+002  0.21671977E+002
 -0.20498011E-014  0.12739634E+002  0.10063551E+002
  
POINT_DATA 9
SCALARS Gamma_LL double
LOOKUP_TABLE default
  0.00000000E+000
  0.00000000E+000
  0.00000000E+000
  0.00000000E+000
  0.00000000E+000
  0.00000000E+000
  0.00000000E+000
  0.00000000E+000
  0.00000000E+000
VECTORS Vind_CP double
  0.00000000E+000  0.00000000E+000  0.00000000E+000
  0.00000000E+000  0.00000000E+000  0.00000000E+000
  0.00000000E+000  0.00000000E+000  0.00000000E+000
  0.00000000E+000  0.00000000E+000  0.00000000E+000
  0.00000000E+000  0.00000000E+000  0.00000000E+000
  0.00000000E+000  0.00000000E+000  0.00000000E+000
  0.00000000E+000  0.00000000E+000  0.00000000E+000
  0.00000000E+000  0.00000000E+000  0.00000000E+000
  0.00000000E+000  0.00000000E+000  0.00000000E+000
VECTORS Vtot_CP double
  0.22946393E+002  0.38006435E-014  0.00000000E+000
  0.52904519E+002  0.84764354E-014  0.00000000E+000
  0.75592149E+002  0.12129170E-013  0.00000000E+000
  0.90995002E+002  0.14664142E-013  0.00000000E+000
  0.95984892E+002  0.15348153E-013  0.00000000E+000
  0.90995000E+002  0.14665321E-013  0.00000000E+000
  0.75592199E+002  0.12132994E-013  0.00000000E+000
  0.52904574E+002  0.84847753E-014  0.00000000E+000
  0.22946372E+002  0.38016574E-014  0.00000000E+000
VECTORS Vstr_CP double
 -0.22946393E+002 -0.38006435E-014  0.00000000E+000
 -0.52904519E+002 -0.84764354E-014  0.00000000E+000
 -0.75592149E+002 -0.12129170E-013  0.00000000E+000
 -0.90995002E+002 -0.14664142E-013  0.00000000E+000
 -0.95984892E+002 -0.15348153E-013  0.00000000E+000
 -0.90995000E+002 -0.14665321E-013  0.00000000E+000
 -0.75592199E+002 -0.12132994E-013  0.00000000E+000
 -0.52904574E+002 -0.84847753E-014  0.00000000E+000
 -0.22946372E+002 -0.38016574E-014  0.00000000E+000
VECTORS Vwnd_CP double
  0.00000000E+000  0.00000000E+000  0.00000000E+000
  0.00000000E+000  0.00000000E+000  0.00000000E+000
  0.00000000E+000  0.00000000E+000  0.00000000E+000
  0.00000000E+000  0.00000000E+000  0.00000000E+000
  0.00000000E+000  0.00000000E+000  0.00000000E+000
  0.00000000E+000  0.00000000E+000  0.00000000E+000
  0.00000000E+000  0.00000000E+000  0.00000000E+000
  0.00000000E+000  0.00000000E+000  0.00000000E+000
  0.00000000E+000  0.00000000E+000  0.00000000E+000
VECTORS Tangent double
  0.10000000E+001  0.29686417E-015  0.00000000E+000
  0.10000000E+001  0.00000000E+000  0.00000000E+000
  0.10000000E+001  0.00000000E+000  0.00000000E+000
  0.10000000E+001  0.00000000E+000  0.00000000E+000
  0.10000000E+001  0.00000000E+000  0.00000000E+000
  0.10000000E+001  0.00000000E+000  0.00000000E+000
  0.10000000E+001  0.00000000E+000  0.00000000E+000
  0.10000000E+001  0.00000000E+000  0.00000000E+000
  0.10000000E+001  0.29605947E-015  0.00000000E+000
VECTORS Normal double
 -0.14395158E-015  0.48490723E+000  0.87456559E+000
 -0.00000000E+000  0.66135954E+000  0.75006904E+000
 -0.00000000E+000  0.72722396E+000  0.68640025E+000
 -0.00000000E+000  0.90457559E+000  0.42631327E+000
  0.00000000E+000  0.10000000E+001 -0.58038807E-015
  0.00000000E+000  0.90457559E+000 -0.42631327E+000
  0.00000000E+000  0.72722557E+000 -0.68639855E+000
  0.00000000E+000  0.66135808E+000 -0.75007032E+000
 -0.14356138E-015  0.48490723E+000 -0.87456559E+000
VECTORS Orth double
 -0.25962719E-015  0.87456559E+000 -0.48490723E+000
  0.00000000E+000  0.75006904E+000 -0.66135954E+000
  0.00000000E+000  0.68640025E+000 -0.72722396E+000
  0.00000000E+000  0.42631327E+000 -0.90457559E+000
  0.00000000E+000 -0.58038807E-015 -0.10000000E+001
  0.00000000E+000 -0.42631327E+000 -0.90457559E+000
  0.00000000E+000 -0.68639855E+000 -0.72722557E+000
  0.00000000E+000 -0.75007032E+000 -0.66135808E+000
  0.25892343E-015 -0.87456559E+000 -0.48490723E+000
