<?xml version="1.0"?>
<VTKFile type="PolyData" version="0.1" byte_order="LittleEndian">
  <PolyData>
    <Piece NumberOfPoints="     10" NumberOfVerts="  0" NumberOfLines="      9"
           NumberOfStrips="  0" NumberOfPolys="      0">
      <Points>
        <DataArray type="Float32" NumberOfComponents="3" format="ascii">
                       0.06701                      -0.07383                      15.12067
                       1.64407                      -1.80125                      15.12759
                       3.22181                      -3.52805                      15.13446
                       4.80005                      -5.25439                      15.14051
                       6.37882                      -6.98025                      15.14538
                       7.95443                      -8.70906                      15.15237
                       9.53339                     -10.43470                      15.15305
                      11.11240                     -12.16028                      15.15214
                      12.69133                     -13.88592                      15.14957
                      14.27005                     -15.61171                      15.14532
        </DataArray>
      </Points>
      <PointData>
        <DataArray type="Float32" Name="TranslationalVelocity" NumberOfComponents="3" format="ascii">
                       0.12494                       0.11839                       0.00141
                       3.24476                       2.96621                       0.04372
                       6.36795                       5.81931                       0.08307
                       9.49410                       8.67676                       0.11672
                      12.62253                      11.53805                       0.14220
                      15.76015                      14.39655                       0.15683
                      18.89268                      17.26228                       0.15869
                      22.02621                      20.12918                       0.14702
                      25.16030                      22.99645                       0.12077
                      28.29449                      25.86330                       0.07903
        </DataArray>
        <DataArray type="Float32" Name="RotationalVelocity" NumberOfComponents="3" format="ascii">
                      -0.01990                      -0.00527                       1.80406
                      -0.01955                      -0.00493                       1.80646
                      -0.01842                      -0.00389                       1.80868
                      -0.01659                      -0.00221                       1.81059
                      -0.01413                       0.00005                       1.81220
                      -0.00764                       0.00598                       1.81448
                      -0.00381                       0.00948                       1.81516
                       0.00027                       0.01322                       1.81554
                       0.00465                       0.01729                       1.81560
                       0.00910                       0.02144                       1.81536
        </DataArray>
        <DataArray type="Float32" Name="TranslationalAcceleration" NumberOfComponents="3" format="ascii">
                       0.18847                       0.04055                      -0.11195
                      -0.52865                       0.86898                      -0.56881
                      -1.01799                       1.47225                      -1.05763
                      -1.49599                       2.09081                      -1.53995
                      -1.96152                       2.72563                      -1.97354
                       2.35826                      -1.62453                      -2.38704
                       1.93617                      -0.94543                      -2.33339
                       1.52203                      -0.25353                      -2.18448
                       1.12882                       0.43948                      -1.92020
                       0.74360                       1.13315                      -1.51094
        </DataArray>
        <DataArray type="Float32" Name="OrientationX" NumberOfComponents="3" format="ascii">
                      -0.00002                       0.00009                       1.00000
                       0.00009                      -0.00005                       1.00000
                       0.00023                      -0.00021                       1.00000
                       0.00038                      -0.00037                       1.00000
                       0.00055                      -0.00055                       1.00000
                       0.00010                       0.00019                       1.00000
                       0.00015                       0.00040                       1.00000
                       0.00025                       0.00052                       1.00000
                       0.00039                       0.00056                       1.00000
                       0.00002                       0.00003                       1.00000
        </DataArray>
        <DataArray type="Float32" Name="OrientationY" NumberOfComponents="3" format="ascii">
                      -0.73967                      -0.67297                       0.00005
                      -0.73914                      -0.67355                       0.00003
                      -0.73858                      -0.67417                       0.00003
                      -0.73801                      -0.67479                       0.00003
                      -0.73738                      -0.67547                       0.00003
                      -0.73599                      -0.67700                       0.00020
                      -0.73606                      -0.67692                       0.00038
                      -0.73626                      -0.67670                       0.00053
                      -0.73657                      -0.67637                       0.00067
                      -0.73621                      -0.67675                       0.00003
        </DataArray>
        <DataArray type="Float32" Name="OrientationZ" NumberOfComponents="3" format="ascii">
                       0.67297                      -0.73967                       0.00009
                       0.67355                      -0.73914                      -0.00010
                       0.67417                      -0.73858                      -0.00031
                       0.67479                      -0.73801                      -0.00053
                       0.67547                      -0.73738                      -0.00078
                       0.67700                      -0.73599                       0.00007
                       0.67692                      -0.73606                       0.00019
                       0.67670                      -0.73626                       0.00022
                       0.67637                      -0.73657                       0.00015
                       0.67675                      -0.73621                       0.00001
        </DataArray>
      </PointData>
      <Lines>
        <DataArray type="Int32" Name="connectivity" format="ascii">
      0      1
      1      2
      2      3
      3      4
      4      5
      5      6
      6      7
      7      8
      8      9
        </DataArray>
        <DataArray type="Int32" Name="offsets" format="ascii">
      2
      4
      6
      8
     10
     12
     14
     16
     18
        </DataArray>
      </Lines>
    </Piece>
  </PolyData>
</VTKFile>
