<?xml version="1.0"?>
<VTKFile type="PolyData" version="0.1" byte_order="LittleEndian">
  <PolyData>
    <Piece NumberOfPoints="    165" NumberOfVerts="  0" NumberOfLines="      0"
           NumberOfStrips="  0" NumberOfPolys="      0">
      <Points>
        <DataArray type="Float32" NumberOfComponents="3" format="ascii">
                       0.31623                       0.06960                     113.18073
                      -6.40627                      -1.93697                     109.61003
                     -12.67448                      -3.81179                     106.04534
                     -18.48121                      -5.55572                     102.47360
                     -20.13312                      -6.05356                     101.40061
                     -23.82184                      -7.16866                      98.88800
                     -28.68093                      -8.64395                      95.26596
                     -33.05122                      -9.97915                      91.60365
                     -36.93109                     -11.17379                      87.90702
                     -40.32682                     -12.22891                      84.19033
                     -43.25011                     -13.14634                      80.46959
                     -45.71426                     -13.92768                      76.75713
                     -47.72864                     -14.57309                      73.05781
                     -49.29750                     -15.08107                      69.37065
                     -50.42170                     -15.44913                      65.69212
                     -51.09874                     -15.67406                      62.01794
                     -51.32519                     -15.75300                      58.34510
                     -51.09971                     -15.68444                      54.67200
                     -50.42288                     -15.46826                      50.99728
                     -49.29745                     -15.10590                      47.31860
                     -47.72575                     -14.59960                      43.63249
                     -45.70780                     -13.95167                      39.93565
                     -43.24096                     -13.16420                      36.22639
                     -40.31837                     -12.23849                      32.50728
                     -36.93046                     -11.17523                      28.78586
                     -33.06931                      -9.97541                      25.07141
                     -28.73035                      -8.64029                      21.37221
                     -23.91490                      -7.17160                      17.69016
                     -20.26417                      -6.06529                      15.11938
                     -18.62980                      -5.57214                      14.01808
                     -12.88136                      -3.84507                      10.34658
                      -6.67122                      -1.98874                       6.67369
                       0.00016                       0.00003                       3.00020
                       0.31623                       0.06960                     113.18073
                       1.87936                       6.82576                     109.45355
                       3.32589                      13.10754                     105.71587
                       4.66694                      18.93153                     101.99995
                       5.04989                      20.59204                     100.89330
                       5.91135                      24.32137                      98.33901
                       7.05951                      29.28634                      94.73872
                       8.10626                      33.80301                      91.15736
                       9.04666                      37.84698                      87.56098
                       9.87576                      41.39642                      83.92843
                      10.59021                      44.43914                      80.25651
                      11.18929                      46.97575                      76.55652
                      11.67455                      49.01694                      72.84503
                      12.04860                      50.57750                      69.13598
                      12.31411                      51.67228                      65.43747
                      12.47323                      52.31376                      61.75132
                      12.52723                      52.51022                      58.07422
                      12.47617                      52.26466                      54.40006
                      12.31909                      51.57525                      50.72253
                      12.05417                      50.43644                      47.03734
                      11.67927                      48.84087                      43.34319
                      11.19194                      46.77956                      39.64276
                      10.58947                      44.24195                      35.94346
                       9.86961                      41.21891                      32.25577
                       9.03138                      37.70619                      28.58910
                       8.07567                      33.70679                      24.94654
                       7.00523                      29.23145                      21.31985
                       5.82358                      24.29399                      17.69180
                       4.93178                      20.56896                      15.14113
                       4.53347                      18.90526                      14.04404
                       3.13438                      13.06308                      10.37607
                       1.62431                       6.76324                       6.69169
                       0.00016                       0.00003                       3.00020
                       0.31623                       0.06960                     113.18073
                       5.31907                      -4.73055                     109.45063
                       9.96381                      -9.19748                     105.70909
                      14.26820                     -13.33923                     101.98805
                      15.49552                     -14.51985                     100.87961
                      18.25239                     -17.17116                      98.32108
                      21.92347                     -20.70168                      94.71647
                      25.26644                     -23.91470                      91.13492
                      28.26560                     -26.79250                      87.54325
                      30.90579                     -29.31836                      83.91893
                      33.17687                     -31.48134                      80.25569
                      35.07611                     -33.27896                      76.56136
                      36.60804                     -34.71690                      72.85114
                      37.78173                     -35.80614                      69.14011
                      38.60759                     -36.55979                      65.43856
                      39.09525                     -36.99070                      61.75017
                      39.25135                     -37.10881                      58.07224
                      39.07789                     -36.91922                      54.39812
                      38.57252                     -36.42210                      50.72057
                      37.72898                     -35.61288                      47.03487
                      36.53920                     -34.48415                      43.34069
                      34.99477                     -33.02716                      39.64267
                      33.08821                     -31.23335                      35.94957
                      30.81592                     -29.09729                      32.27054
                      28.17908                     -26.61794                      28.61099
                      25.18296                     -23.79827                      24.97011
                      21.83627                     -20.64487                      21.33837
                      18.14737                     -17.16468                      17.70194
                      15.36418                     -14.53639                      15.14742
                      14.12083                     -13.36134                      14.05005
                       9.75502                      -9.23240                      10.38370
                       5.04932                      -4.77890                       6.69933
                       0.00016                       0.00003                       3.00020
                      -0.09643                      -0.02851                      15.12071
                      -2.02807                      -0.60285                      15.12086
                      -4.05518                      -1.20695                      15.12145
                      -6.08196                      -1.81218                      15.12216
                      -8.10844                      -2.41834                      15.12275
                     -10.13469                      -3.02528                      15.12303
                     -12.16076                      -3.63281                      15.12291
                     -14.18668                      -4.24075                      15.12235
                     -16.21252                      -4.84893                      15.12141
                     -18.23833                      -5.45717                      15.12031
                     -20.26417                      -6.06529                      15.11938
                       0.02277                       0.09715                      15.12071
                       0.49227                       2.05693                      15.12811
                       0.98523                       4.11393                      15.13556
                       1.47832                       6.17090                      15.14221
                       1.97151                       8.22784                      15.14765
                       2.46480                      10.28475                      15.15153
                       2.95815                      12.34164                      15.15360
                       3.45154                      14.39851                      15.15369
                       3.94496                      16.45535                      15.15171
                       4.43838                      18.51217                      15.14754
                       4.93178                      20.56896                      15.14113
                       0.07199                      -0.06891                      15.12071
                       1.53477                      -1.45496                      15.12882
                       3.07053                      -2.90938                      15.13695
                       4.60663                      -4.36345                      15.14424
                       6.14302                      -5.81720                      15.15027
                       7.67964                      -7.27070                      15.15473
                       9.21643                      -8.72401                      15.15737
                      10.75334                     -10.17718                      15.15802
                      12.29031                     -11.63026                      15.15661
                      13.82727                     -13.08331                      15.15307
                      15.36418                     -14.53639                      15.14742
                       0.03057                      -0.01088                     101.06358
                      -1.90053                      -0.58693                     101.07659
                      -3.92714                      -1.19244                     101.09830
                      -5.95345                      -1.79873                     101.12678
                      -7.97950                      -2.40566                     101.16060
                     -10.00534                      -3.01311                     101.19836
                     -12.03100                      -3.62094                     101.23877
                     -14.05656                      -4.22903                     101.28050
                     -16.08205                      -4.83726                     101.32231
                     -18.10756                      -5.44547                     101.36281
                     -20.13312                      -6.05356                     101.40061
                       0.14977                       0.11479                     101.06358
                       0.61762                       2.07527                     101.04404
                       1.10921                       4.13291                     101.02282
                       1.60125                       6.19043                     101.00128
                       2.09364                       8.24787                     100.97993
                       2.58630                      10.30524                     100.95932
                       3.07912                      12.36258                     100.94009
                       3.57200                      14.41990                     100.92297
                       4.06483                      16.47724                     100.90878
                       4.55750                      18.53461                     100.89850
                       5.04989                      20.59204                     100.89330
                       0.19900                      -0.05128                     101.06358
                       1.66327                      -1.43628                     101.04360
                       3.20030                      -2.88990                     101.02183
                       4.73738                      -4.34346                     100.99957
                       6.27450                      -5.79699                     100.97726
                       7.81160                      -7.25051                     100.95543
                       9.34866                      -8.70409                     100.93470
                      10.88563                     -10.15776                     100.91579
                      12.42247                     -11.61158                     100.89958
                      13.95912                     -13.06559                     100.88712
                      15.49552                     -14.51985                     100.87961
        </DataArray>
      </Points>
      <PointData>
        <DataArray type="Float32" Name="TranslationalVelocity" NumberOfComponents="3" format="ascii">
                       3.26804                       0.81049                      -0.01174
                       6.50219                     -11.49429                       0.81033
                       9.40610                     -23.04038                       1.76979
                      12.03664                     -33.82883                       2.75265
                      12.77512                     -36.91879                       3.04683
                      14.41958                     -43.85540                       3.70299
                      16.64151                     -53.04601                       4.45678
                      18.81559                     -61.35481                       4.88581
                      21.04144                     -68.75558                       4.93623
                      23.34554                     -75.24872                       4.66728
                      25.66003                     -80.85970                       4.22262
                      27.85120                     -85.62447                       3.76059
                      29.77941                     -89.56618                       3.38888
                      31.34047                     -92.68504                       3.14661
                      32.47705                     -94.96099                       3.02094
                      33.16965                     -96.36082                       2.97417
                      33.41817                     -96.85186                       2.96512
                      33.23355                     -96.41373                       2.95767
                      32.63383                     -95.04092                       2.92310
                      31.64207                     -92.74442                       2.83985
                      30.28040                     -89.54684                       2.69080
                      28.57287                     -85.47624                       2.46274
                      26.55086                     -80.56066                       2.15045
                      24.25134                     -74.82085                       1.75955
                      21.71799                     -68.26827                       1.31206
                      19.00261                     -60.90857                       0.85374
                      16.15361                     -52.74081                       0.44846
                      13.20028                     -43.76295                       0.15739
                      11.07894                     -36.99872                       0.04965
                      10.15714                     -33.98384                       0.02823
                       6.97652                     -23.43524                      -0.00185
                       3.60180                     -12.11478                      -0.00028
                      -0.00039                      -0.00040                       0.00021
                       3.26804                       0.81049                      -0.01174
                      -9.40934                       3.53974                      -0.38045
                     -21.28886                       6.01182                      -0.82326
                     -32.32459                       8.35838                      -1.12744
                     -35.46795                       9.05053                      -1.17616
                     -42.51032                      10.67748                      -1.17611
                     -51.86564                      13.00976                      -0.94252
                     -60.35590                      15.29335                      -0.54350
                     -67.94302                      17.43935                      -0.11434
                     -74.60018                      19.32558                       0.20996
                     -80.31775                      20.84117                       0.35539
                     -85.10087                      21.93377                       0.33274
                     -88.96295                      22.61736                       0.20615
                     -91.91902                      22.95108                       0.05004
                     -93.98299                      23.02047                      -0.07677
                     -95.16892                      22.91152                      -0.14643
                     -95.49085                      22.68895                      -0.16243
                     -94.96060                      22.39054                      -0.14888
                     -93.58755                      22.02613                      -0.13786
                     -91.37791                      21.58357                      -0.15828
                     -88.33666                      21.03038                      -0.22612
                     -84.46703                      20.31536                      -0.33535
                     -79.76776                      19.37856                      -0.45560
                     -74.23549                      18.16549                      -0.53812
                     -67.86726                      16.64651                      -0.53516
                     -60.66139                      14.83499                      -0.43283
                     -52.62083                      12.78003                      -0.26597
                     -43.75185                      10.53961                      -0.10139
                     -37.05319                       8.88745                      -0.02795
                     -34.05828                       8.16119                      -0.01199
                     -23.53621                       5.63140                       0.01060
                     -12.18594                       2.91721                       0.00719
                      -0.00039                      -0.00040                       0.00021
                       3.26804                       0.81049                      -0.01174
                      11.52938                       9.89485                      -0.62736
                      19.10992                      18.32567                      -1.28788
                      26.15933                      26.06759                      -1.75397
                      28.18795                      28.25258                      -1.83558
                      32.82177                      33.08273                      -1.85336
                      39.15655                      39.32830                      -1.52710
                      45.07515                      44.84399                      -0.96109
                      50.47187                      49.69275                      -0.35063
                      55.21772                      53.96673                       0.11879
                      59.19876                      57.76252                       0.33947
                      62.35543                      61.14659                       0.31121
                      64.70023                      64.13419                       0.11665
                      66.30400                      66.69197                      -0.13312
                      67.27107                      68.74905                      -0.34332
                      67.71053                      70.21629                      -0.46356
                      67.70523                      71.01033                      -0.49527
                      67.29447                      71.06778                      -0.47792
                      66.47218                      70.35226                      -0.46617
                      65.18874                      68.85881                      -0.50511
                      63.36453                      66.61242                      -0.60947
                      60.90756                      63.65908                      -0.75318
                      57.73692                      60.05029                      -0.87611
                      53.81160                      55.82618                      -0.91191
                      49.13895                      51.00801                      -0.81821
                      43.76905                      45.59648                      -0.60007
                      37.78179                      39.57500                      -0.32156
                      31.25252                      32.92169                      -0.07566
                      26.38619                      27.87903                       0.03130
                      24.22784                      25.62191                       0.05767
                      16.68706                      17.69803                       0.10564
                       8.61306                       9.16074                       0.08923
                      -0.00039                      -0.00040                       0.00021
                       0.05228                      -0.17603                       0.00066
                       1.09161                      -3.67017                      -0.00029
                       2.18826                      -7.34862                      -0.00324
                       3.29001                     -11.03676                      -0.00708
                       4.39609                     -14.73309                      -0.01057
                       5.50571                     -18.43608                      -0.01246
                       6.61806                     -22.14424                      -0.01144
                       7.73235                     -25.85607                      -0.00616
                       8.84779                     -29.57007                       0.00481
                       9.96358                     -33.28479                       0.02291
                      11.07894                     -36.99872                       0.04965
                      -0.17406                       0.03867                       0.00066
                      -3.70926                       0.88612                       0.00788
                      -7.41830                       1.77553                       0.01506
                     -11.12586                       2.66484                       0.02109
                     -14.83215                       3.55406                       0.02521
                     -18.53734                       4.44320                       0.02669
                     -22.24161                       5.33225                       0.02483
                     -25.94514                       6.22120                       0.01893
                     -29.64814                       7.11004                       0.00832
                     -33.35076                       7.99881                      -0.00723
                     -37.05319                       8.88745                      -0.02795
                       0.12505                       0.12734                       0.00066
                       2.62932                       2.76967                       0.02369
                       5.26112                       5.54802                       0.04619
                       7.89584                       8.33075                       0.06589
                      10.53309                      11.11722                       0.08169
                      13.17245                      13.90680                       0.09248
                      15.81350                      16.69884                       0.09715
                      18.45583                      19.49271                       0.09458
                      21.09900                      22.28779                       0.08363
                      23.74260                      25.08344                       0.06297
                      26.38619                      27.87903                       0.03130
                       1.67712                       0.00331                      -0.00134
                       2.72529                      -3.51159                       0.12560
                       3.83039                      -7.20815                       0.32275
                       4.94009                     -10.91099                       0.57456
                       6.05379                     -14.61901                       0.87035
                       7.17077                     -18.33119                       1.19990
                       8.29022                     -22.04649                       1.55361
                       9.41127                     -25.76390                       1.92260
                      10.53303                     -29.48241                       2.29887
                      11.65461                     -33.20105                       2.67551
                      12.77512                     -36.91879                       3.04683
                       1.45078                       0.21801                      -0.00134
                      -2.10481                       1.06608                      -0.13834
                      -5.82835                       1.95511                      -0.28725
                      -9.54452                       2.84321                      -0.43660
                     -13.25471                       3.73058                      -0.58173
                     -16.96031                       4.61746                      -0.71846
                     -20.66270                       5.50404                      -0.84316
                     -24.36327                       6.39051                      -0.95289
                     -28.06341                       7.27700                      -1.04549
                     -31.76451                       8.16366                      -1.11996
                     -35.46795                       9.05053                      -1.17616
                       1.74989                       0.30668                      -0.00134
                       4.27011                       2.97113                      -0.20843
                       6.91957                       5.77273                      -0.43121
                       9.57261                       8.57842                      -0.65450
                      12.22855                      11.38726                      -0.87326