<?xml version="1.0"?>
<VTKFile type="PolyData" version="0.1" byte_order="LittleEndian">
  <PolyData>
    <Piece NumberOfPoints="     10" NumberOfVerts="  0" NumberOfLines="      9"
           NumberOfStrips="  0" NumberOfPolys="      0">
      <Points>
        <DataArray type="Float32" NumberOfComponents="3" format="ascii">
                       0.07041                       0.01298                     113.18156
                       7.96732                      18.96167                     100.88731
                      13.58526                      32.38508                      88.71931
                      18.29676                      43.59759                      76.49530
                      20.62258                      49.13926                      64.21733
                      20.61467                      49.11917                      51.96362
                      18.28130                      43.55668                      39.69817
                      13.57827                      32.35596                      27.45580
                       7.95404                      18.95062                      15.25946
                       0.00019                       0.00005                       3.00014
        </DataArray>
      </Points>
      <PointData>
        <DataArray type="Float32" Name="TranslationalVelocity" NumberOfComponents="3" format="ascii">
                       1.98089                       0.39820                      -0.01234
                     -33.54702                      14.49104                      -1.24165
                     -57.75913                      26.38357                       0.36732
                     -78.09865                      35.03245                       1.01245
                     -88.80927                      37.30458                      -0.02177
                     -88.89299                      36.82699                      -0.16740
                     -78.37306                      33.65275                      -0.80234
                     -58.01656                      25.34843                      -0.76602
                     -34.13866                      14.32901                       0.19352
                       0.00063                       0.00026                       0.00122
        </DataArray>
        <DataArray type="Float32" Name="RotationalVelocity" NumberOfComponents="3" format="ascii">
                      -0.01379                       0.09008                       1.80830
                       0.03019                       0.06721                       1.80819
                       0.16789                      -0.05230                       1.82793
                      -0.13692                       0.03579                       1.82765
                      -0.14344                       0.05026                       1.80506
                       0.06212                      -0.03040                       1.80154
                       0.08739                      -0.04058                       1.80587
                      -0.07814                       0.02441                       1.80242
                      -0.03489                       0.00747                       1.80078
                       0.01799                       0.00201                       1.80158
        </DataArray>
        <DataArray type="Float32" Name="TranslationalAcceleration" NumberOfComponents="3" format="ascii">
                      23.19345                      -1.36883                       0.59587
                      14.96891                       0.10788                      -7.13509
                       3.63144                      -0.10529                      -7.91447
                      -3.33390                      13.89775                       0.82200
                     -11.31848                      -2.10601                      -2.65451
                      -9.61610                     -11.74023                      -0.78428
                      -2.01835                      -3.64727                      -1.07376
                       0.31871                      -1.83463                      -3.28182
                       1.81389                       3.36775                      -5.04030
                      -0.07367                      -0.02454                       0.05001
        </DataArray>
        <DataArray type="Float32" Name="OrientationX" NumberOfComponents="3" format="ascii">
                       0.79620                       0.60503                      -0.00268
                       0.39372                       0.91923                       0.00351
                       0.38492                       0.92295                      -0.00106
                       0.38273                       0.92386                      -0.00249
                       0.38739                       0.92192                       0.00038
                       0.38937                       0.92108                       0.00206
                       0.38448                       0.92313                      -0.00064
                       0.38593                       0.92253                      -0.00047
                       0.38853                       0.92143                       0.00064
                       0.38700                       0.92208                       0.00206
        </DataArray>
        <DataArray type="Float32" Name="OrientationY" NumberOfComponents="3" format="ascii">
                       0.60503                      -0.79620                       0.00087
                       0.91923                      -0.39372                      -0.00052
                       0.92295                      -0.38492                      -0.00006
                       0.92386                      -0.38273                       0.00029
                       0.92192                      -0.38739                       0.00007
                       0.92108                      -0.38937                      -0.00013
                       0.92313                      -0.38448                      -0.00025
                       0.92253                      -0.38593                       0.00008
                       0.92144                      -0.38853                       0.00009
                       0.92207                      -0.38700                       0.00327
        </DataArray>
        <DataArray type="Float32" Name="OrientationZ" NumberOfComponents="3" format="ascii">
                      -0.00161                      -0.00231                      -1.00000
                       0.00091                       0.00343                      -0.99999
                      -0.00046                      -0.00095                      -1.00000
                      -0.00068                      -0.00242                      -1.00000
                       0.00021                       0.00032                      -1.00000
                       0.00068                       0.00195                      -1.00000
                      -0.00047                      -0.00050                      -1.00000
                      -0.00011                      -0.00047                      -1.00000
                       0.00033                       0.00056                      -1.00000
                       0.00381                       0.00063                      -0.99999
        </DataArray>
      </PointData>
      <Lines>
        <DataArray type="Int32" Name="connectivity" format="ascii">
      0      1
      1      2
      2      3
      3      4
      4      5
      5      6
      6      7
      7      8
      8      9
        </DataArray>
        <DataArray type="Int32" Name="offsets" format="ascii">
      2
      4
      6
      8
     10
     12
     14
     16
     18
        </DataArray>
      </Lines>
    </Piece>
  </PolyData>
</VTKFile>
