<?xml version="1.0"?>
<VTKFile type="PolyData" version="0.1" byte_order="LittleEndian">
  <PolyData>
    <Piece NumberOfPoints="     10" NumberOfVerts="  0" NumberOfLines="      9"
           NumberOfStrips="  0" NumberOfPolys="      0">
      <Points>
        <DataArray type="Float32" NumberOfComponents="3" format="ascii">
                       0.12393                      -0.06569                     101.06355
                       1.67161                      -1.81994                     101.05224
                       3.21877                      -3.57466                     101.04000
                       4.76565                      -5.32962                     101.02708
                       6.31214                      -7.08492                     101.01374
                       7.85595                      -8.84316                     101.00098
                       9.40299                     -10.59795                     100.98879
                      10.94949                     -12.35321                     100.97801
                      12.49509                     -14.10925                     100.96910
                      14.03994                     -15.86593                     100.96483
        </DataArray>
      </Points>
      <PointData>
        <DataArray type="Float32" Name="TranslationalVelocity" NumberOfComponents="3" format="ascii">
                       1.24620                       0.26851                       0.00223
                       4.43007                       3.07566                      -0.21588
                       7.61805                       5.88471                      -0.43953
                      10.80884                       8.69539                      -0.66140
                      14.00183                      11.50677                      -0.87422
                      17.20435                      14.31355                      -1.06984
                      20.39733                      17.12654                      -1.24066
                      23.59034                      19.93762                      -1.38094
                      26.78306                      22.74539                      -1.48413
                      29.97461                      25.54946                      -1.54369
        </DataArray>
        <DataArray type="Float32" Name="RotationalVelocity" NumberOfComponents="3" format="ascii">
                       0.07320                       0.05449                       1.81281
                       0.06840                       0.06532                       1.81461
                       0.06144                       0.07501                       1.81613
                       0.05251                       0.08296                       1.81728
                       0.04163                       0.08920                       1.81804
                       0.01429                       0.09669                       1.81844
                      -0.00204                       0.09804                       1.81805
                      -0.02004                       0.09787                       1.81728
                      -0.03983                       0.09599                       1.81611
                      -0.06121                       0.09263                       1.81454
        </DataArray>
        <DataArray type="Float32" Name="TranslationalAcceleration" NumberOfComponents="3" format="ascii">
                      10.91834                      -3.40174                      -0.03049
                      10.40623                      -2.45427                      -0.77942
                      10.19151                      -1.68080                      -1.61152
                      10.03461                      -0.85560                      -2.48291
                       9.92411                       0.00782                      -3.37092
                      14.94089                      -3.99410                      -4.75228
                      14.90749                      -3.07884                      -5.42057
                      14.88871                      -2.15904                      -6.11864
                      14.86380                      -1.23270                      -6.82715
                      14.84080                      -0.30502                      -7.51605
        </DataArray>
        <DataArray type="Float32" Name="OrientationX" NumberOfComponents="3" format="ascii">
                       0.00272                      -0.00222                       0.99999
                       0.00310                      -0.00272                       0.99999
                       0.00345                      -0.00316                       0.99999
                       0.00376                      -0.00353                       0.99999
                       0.00401                      -0.00381                       0.99998
                       0.00426                      -0.00401                       0.99998
                       0.00418                      -0.00383                       0.99998
                       0.00397                      -0.00346                       0.99999
                       0.00193                      -0.00119                       1.00000
                      -0.00216                       0.00739                       0.99997
        </DataArray>
        <DataArray type="Float32" Name="OrientationY" NumberOfComponents="3" format="ascii">
                      -0.74744                      -0.66433                       0.00056
                      -0.74757                      -0.66418                       0.00051
                      -0.74777                      -0.66395                       0.00048
                      -0.74807                      -0.66362                       0.00047
                      -0.74850                      -0.66313                       0.00047
                      -0.74988                      -0.66157                       0.00054
                      -0.75098                      -0.66033                       0.00061
                      -0.75235                      -0.65876                       0.00070
                      -0.75351                      -0.65743                       0.00067
                      -0.74379                      -0.66840                       0.00334
        </DataArray>
        <DataArray type="Float32" Name="OrientationZ" NumberOfComponents="3" format="ascii">
                       0.66433                      -0.74743                      -0.00347
                       0.66418                      -0.74757                      -0.00409
                       0.66395                      -0.74777                      -0.00466
                       0.66361                      -0.74807                      -0.00514
                       0.66312                      -0.74849                      -0.00551
                       0.66156                      -0.74987                      -0.00582
                       0.66032                      -0.75097                      -0.00564
                       0.65875                      -0.75234                      -0.00522
                       0.65743                      -0.75351                      -0.00216
                       0.66841                      -0.74376                       0.00694
        </DataArray>
      </PointData>
      <Lines>
        <DataArray type="Int32" Name="connectivity" format="ascii">
      0      1
      1      2
      2      3
      3      4
      4      5
      5      6
      6      7
      7      8
      8      9
        </DataArray>
        <DataArray type="Int32" Name="offsets" format="ascii">
      2
      4
      6
      8
     10
     12
     14
     16
     18
        </DataArray>
      </Lines>
    </Piece>
  </PolyData>
</VTKFile>
