# vtk DataFile Version 2.0
BldPointCP.BldB
ASCII
 
DATASET POLYDATA
POINTS 9 double
  0.41172532E+001  0.10739789E+002  0.10631006E+003
  0.99591578E+001  0.26339941E+002  0.94544312E+002
  0.14657746E+002  0.38809974E+002  0.82369333E+002
  0.17822448E+002  0.47183351E+002  0.70103626E+002
  0.18827770E+002  0.49839669E+002  0.58088650E+002
  0.17807665E+002  0.47130799E+002  0.46083686E+002
  0.14642581E+002  0.38751285E+002  0.33812419E+002
  0.99417807E+001  0.26309280E+002  0.21599709E+002
  0.40523254E+001  0.10721641E+002  0.98385227E+001
  
POINT_DATA 9
SCALARS Gamma_LL double
LOOKUP_TABLE default
  0.11260791E+003
  0.55118972E+002
  0.23710119E+002
  0.36574781E+002
  0.57627379E+002
  0.49673087E+002
  0.36249274E+002
  0.50634756E+002
  0.57102687E+002
VECTORS Vind_CP double
  0.19614238E-001 -0.78326903E-001 -0.42701210E+000
 -0.49207446E-001 -0.77950609E-001 -0.12976956E+000
 -0.19122515E-001 -0.42274266E-001 -0.21891493E-002
 -0.55413822E-001 -0.20537304E+000 -0.36181989E-001
 -0.13019662E+000 -0.42385740E+000  0.78309383E-002
 -0.88750448E-001 -0.29488621E+000  0.89291964E-001
 -0.42953057E-001 -0.11756306E+000  0.67399586E-001
 -0.58343607E-001 -0.13586971E+000  0.13854503E+000
 -0.80707780E-001 -0.59258690E-001  0.14382006E+000
VECTORS Vtot_CP double
  0.35007533E+002 -0.76874990E+001  0.32940680E+000
  0.63891964E+002 -0.19048770E+002  0.40893093E+000
  0.86686960E+002 -0.28510216E+002 -0.62276309E+000
  0.10227234E+003 -0.33464560E+002 -0.48614975E+000
  0.10737826E+003 -0.34197922E+002  0.12780678E+000
  0.10229716E+003 -0.32420079E+002  0.57633463E+000
  0.86841005E+002 -0.27202045E+002  0.88286806E+000
  0.64407461E+002 -0.18478583E+002  0.50921202E+000
  0.36431515E+002 -0.73593973E+001  0.81634262E-001
VECTORS Vstr_CP double
 -0.17787919E+002  0.76091721E+001 -0.75641890E+000
 -0.46741172E+002  0.18970819E+002 -0.53870049E+000
 -0.69506083E+002  0.28467941E+002  0.62057394E+000
 -0.85127756E+002  0.33259187E+002  0.44996777E+000
 -0.90308452E+002  0.33774064E+002 -0.11997584E+000
 -0.85185909E+002  0.32125193E+002 -0.48704267E+000
 -0.69683958E+002  0.27084482E+002 -0.81546847E+000
 -0.47265804E+002  0.18342713E+002 -0.37066698E+000
 -0.19312223E+002  0.73001386E+001  0.62185802E-001
VECTORS Vwnd_CP double
  0.17200000E+002  0.00000000E+000  0.00000000E+000
  0.17200000E+002  0.00000000E+000  0.00000000E+000
  0.17200000E+002  0.00000000E+000  0.00000000E+000
  0.17200000E+002  0.00000000E+000  0.00000000E+000
  0.17200000E+002  0.00000000E+000  0.00000000E+000
  0.17200000E+002  0.00000000E+000  0.00000000E+000
  0.17200000E+002  0.00000000E+000  0.00000000E+000
  0.17200000E+002  0.00000000E+000  0.00000000E+000
  0.17200000E+002  0.00000000E+000  0.00000000E+000
VECTORS Tangent double
  0.80715785E+000 -0.59033558E+000  0.31499130E-003
  0.93355616E+000 -0.35843015E+000 -0.85192058E-003
  0.93711543E+000 -0.34901944E+000 -0.30582300E-003
  0.93663967E+000 -0.35029432E+000  0.10376995E-003
  0.93452755E+000 -0.35589081E+000 -0.25018703E-004
  0.93538490E+000 -0.35363124E+000 -0.17344588E-003
  0.93632706E+000 -0.35112910E+000 -0.61910407E-004
  0.93527054E+000 -0.35393363E+000  0.86531572E-004
  0.93503165E+000 -0.35455560E+000  0.24758549E-002
VECTORS Normal double
  0.31222152E+000  0.42734899E+000  0.84846365E+000
  0.22998719E+000  0.59719119E+000  0.76841953E+000
  0.24734651E+000  0.66350542E+000  0.70610216E+000
  0.31506431E+000  0.84256879E+000  0.43682069E+000
  0.35588916E+000  0.93452344E+000 -0.29744573E-002
  0.31755150E+000  0.84016652E+000 -0.43963764E+000
  0.24923340E+000  0.66473436E+000 -0.70428045E+000
  0.22721533E+000  0.60022962E+000 -0.76687522E+000
  0.18364963E+000  0.47832282E+000 -0.85876661E+000
VECTORS Orth double
  0.50101289E+000  0.68474575E+000 -0.52925357E+000
  0.27491597E+000  0.71755872E+000 -0.63994585E+000
  0.24624047E+000  0.66177488E+000 -0.70810991E+000
  0.15310324E+000  0.40911090E+000 -0.89954859E+000
 -0.10819626E-002 -0.27708084E-002 -0.99999558E+000
 -0.15561533E+000 -0.41117534E+000 -0.89817521E+000
 -0.24733451E+000 -0.65942141E+000 -0.70992186E+000
 -0.27137099E+000 -0.71725546E+000 -0.64179623E+000
 -0.30329625E+000 -0.80342865E+000 -0.51236099E+000
