<?xml version="1.0"?>
<VTKFile type="PolyData" version="0.1" byte_order="LittleEndian">
  <PolyData>
    <Piece NumberOfPoints="    165" NumberOfVerts="  0" NumberOfLines="      0"
           NumberOfStrips="  0" NumberOfPolys="      0">
      <Points>
        <DataArray type="Float32" NumberOfComponents="3" format="ascii">
                       0.13891                       0.02750                     113.18127
                      -6.73607                      -1.23190                     109.55986
                     -13.14004                      -2.40666                     105.93790
                     -19.06981                      -3.49753                     102.31005
                     -20.75631                      -3.80855                     101.22069
                     -24.52276                      -4.50463                      98.67302
                     -29.49000                      -5.42527                      95.01481
                     -33.97024                      -6.25892                      91.33717
                     -37.96577                      -7.00578                      87.64648
                     -41.48178                      -7.66629                      83.95105
                     -44.52405                      -8.24081                      80.25755
                     -47.09770                      -8.72947                      76.56992
                     -49.20518                      -9.13190                      72.88854
                     -50.84670                      -9.44729                      69.21188
                     -52.02189                      -9.67471                      65.53820
                     -52.72889                      -9.81298                      61.86563
                     -52.96519                      -9.86106                      58.19310
                     -52.73005                      -9.81844                      54.52044
                     -52.02426                      -9.68507                      50.84748
                     -50.85056                      -9.46152                      47.17314
                     -49.21132                      -9.14866                      43.49535
                     -47.10729                      -8.74723                      39.81200
                     -44.53785                      -8.25794                      36.12170
                     -41.49924                      -7.68120                      32.42579
                     -37.98547                      -7.01721                      28.72917
                     -33.99186                      -6.26653                      25.03757
                     -29.51570                      -5.42999                      21.35609
                     -24.55846                      -4.50881                      17.68505
                     -20.80529                      -3.81444                      15.11783
                     -19.12616                      -3.50474                      14.01717
                     -13.22268                      -2.41938                      10.34647
                      -6.84748                      -1.25168                       6.67357
                       0.00019                       0.00005                       3.00017
                       0.13891                       0.02750                     113.18127
                       2.45204                       6.58066                     109.48195
                       4.60128                      12.67632                     105.77444
                       6.59362                      18.32276                     102.07677
                       7.16163                      19.93084                     100.97221
                       8.43641                      23.53667                      98.41364
                      10.13084                      28.32434                      94.78924
                      11.67091                      32.66856                      91.17323
                      13.05102                      36.55322                      87.54359
                      14.26653                      39.96646                      83.88951
                      15.31499                      42.90386                      80.21210
                      16.19638                      45.36825                      76.51988
                      16.91245                      47.36715                      72.82290
                      17.46564                      48.90919                      69.12872
                      17.85818                      50.00190                      65.44111
                      18.09199                      50.65118                      61.76048
                      18.16838                      50.86090                      58.08464
                      18.08776                      50.63205                      54.41002
                      17.84971                      49.96318                      50.73315
                      17.45312                      48.85081                      47.05181
                      16.89657                      47.29088                      43.36548
                      16.17845                      45.27869                      39.67576
                      15.29663                      42.80834                      35.98713
                      14.24926                      39.87466                      32.30585
                      13.03548                      36.47523                      28.63759
                      11.65579                      32.61153                      24.98463
                      10.11246                      28.28996                      21.34203
                       8.40858                      23.51941                      17.69852
                       7.12168                      19.91685                      15.14080
                       6.54654                      18.30685                      14.04204
                       4.52574                      12.65107                      10.37175
                       2.34461                       6.55010                       6.68884
                       0.00019                       0.00005                       3.00017
                       0.13891                       0.02750                     113.18127
                       4.61836                      -5.28823                     109.48571
                       8.78243                     -10.23395                     105.78127
                      12.63986                     -14.81446                     102.08472
                      13.73862                     -16.11857                     100.97985
                      16.20207                     -19.04150                      98.41838
                      19.47268                     -22.92058                      94.78728
                      22.44242                     -26.43969                      91.16562
                      25.10238                     -29.58705                      87.53395
                      27.44534                     -32.35349                      83.88180
                      29.46765                     -34.73486                      80.20879
                      31.16920                     -36.73209                      76.52110
                      32.55275                     -38.35000                      72.82725
                      33.62242                     -39.59533                      69.13451
                      34.38231                     -40.47492                      65.44725
                      34.83593                     -40.99486                      61.76654
                      34.98576                     -41.15953                      58.09061
                      34.83232                     -40.97058                      54.41598
                      34.37449                     -40.42708                      50.73918
                      33.60953                     -39.52567                      47.05818
                      32.53429                     -38.26199                      43.37313
                      31.14554                     -36.63134                      39.68647
                      29.44013                     -34.62908                      36.00278
                      27.41642                     -32.25243                      32.32688
                      25.07476                     -29.50123                      28.66162
                      22.41729                     -26.37762                      25.00678
                      19.44800                     -22.88612                      21.35715
                      16.17096                     -19.03142                      17.70488
                      13.69512                     -16.11848                      15.14333
                      12.58821                     -14.81582                      14.04416
                       8.69919                     -10.23815                      10.37472
                       4.50408                      -5.29991                       6.69241
                       0.00019                       0.00005                       3.00017
                      -0.09859                      -0.01782                      15.12064
                      -2.08107                      -0.37959                      15.12087
                      -4.16181                      -0.75991                      15.12154
                      -6.24245                      -1.14076                      15.12234
                      -8.32300                      -1.52206                      15.12299
                     -10.40349                      -1.90373                      15.12329
                     -12.48391                      -2.28567                      15.12313
                     -14.56428                      -2.66779                      15.12242
                     -16.64462                      -3.05003                      15.12116
                     -18.72496                      -3.43227                      15.11955
                     -20.80529                      -3.81444                      15.11783
                       0.03347                       0.09425                      15.12064
                       0.71188                       1.99183                      15.12664
                       1.42400                       3.98356                      15.13271
                       2.13617                       5.97527                      15.13817
                       2.84836                       7.96697                      15.14270
                       3.56058                       9.95865                      15.14606
                       4.27281                      11.95032                      15.14806
                       4.98505                      13.94197                      15.14860
                       5.69728                      15.93362                      15.14763
                       6.40949                      17.92524                      15.14504
                       7.12168                      19.91685                      15.14080
                       0.06449                      -0.07615                      15.12064
                       1.36878                      -1.61226                      15.12674
                       2.73799                      -3.22442                      15.13289
                       4.10736                      -4.83645                      15.13843
                       5.47687                      -6.44835                      15.14305
                       6.84650                      -8.06015                      15.14654
                       8.21620                      -9.67187                      15.14872
                       9.58594                     -11.28354                      15.14950
                      10.95570                     -12.89519                      15.14886
                      12.32544                     -14.50682                      15.14678
                      13.69512                     -16.11848                      15.14333
                      -0.05109                      -0.00999                     101.06352
                      -2.03338                      -0.37244                     101.06924
                      -4.11394                      -0.75332                     101.07919
                      -6.19442                      -1.13457                     101.09247
                      -8.27482                      -1.51614                     101.10838
                     -10.35515                      -1.89796                     101.12626
                     -12.43543                      -2.27997                     101.14544
                     -14.51567                      -2.66210                     101.16525
                     -16.59588                      -3.04429                     101.18500
                     -18.67609                      -3.42646                     101.20380
                     -20.75631                      -3.80855                     101.22069
                       0.08097                       0.10208                     101.06352
                       0.75870                       2.00023                     101.05405
                       1.47013                       3.99255                     101.04363
                       2.18160                       5.98485                     101.03281
                       2.89311                       7.97713                     101.02171
                       3.60464                       9.96940                     101.01059
                       4.31616                      11.96167                     100.99981
                       5.02766                      13.95393                     100.98983
                       5.73909                      15.94621                     100.98129
                       6.45043                      17.93851                     100.97507
                       7.16163                      19.93084                     100.97221
                       0.11200                      -0.06832                     101.06352
                       1.41689                      -1.60434                     101.05537
                       2.78642                      -3.21669                     101.04633
                       4.15584                      -4.82912                     101.03680
                       5.52514                      -6.44165                     101.02689
                       6.89434                      -8.05425                     101.01680
                       8.26344                      -9.66693                     101.00687
                       9.63242                     -11.27970                     100.99753
                      11.00129                     -12.89256                     100.98936
                      12.37003                     -14.50551                     100.98315
                      13.73862                     -16.11857                     100.97985
        </DataArray>
      </Points>
      <PointData>
        <DataArray type="Float32" Name="TranslationalVelocity" NumberOfComponents="3" format="ascii">
                       2.55940                       0.56845                      -0.00780
                       4.41997                     -11.99849                       0.82338
                       6.06068                     -23.75319                       1.72737
                       7.55455                     -34.69974                       2.57044
                       7.97619                     -37.82742                       2.80885
                       8.94046                     -44.83584                       3.29330
                      10.34292                     -54.10688                       3.71762
                      11.83593                     -62.49505                       3.79645
                      13.44269                     -70.00117                       3.57115
                      15.10331                     -76.63979                       3.17169
                      16.70020                     -82.42931                       2.75059
                      18.11020                     -87.38195                       2.41726
                      19.25349                     -91.49419                       2.20767
                      20.10308                     -94.74821                       2.10368
                      20.67122                     -97.11870                       2.06546
                      20.99044                     -98.57650                       2.05609
                      21.08801                     -99.09670                       2.05404
                      20.97119                     -98.66726                       2.04895
                      20.62824                     -97.28938                       2.03023
                      20.03444                     -94.97781                       1.97781
                      19.16717                     -91.75355                       1.86130
                      18.02508                     -87.63747                       1.65212
                      16.64011                     -82.64748                       1.34291
                      15.07753                     -76.79326                       0.96435
                      13.41657                     -70.07878                       0.58393
                      11.71652                     -62.51206                       0.27627
                       9.99532                     -54.10504                       0.08755
                       8.22797                     -44.87348                       0.01168
                       6.93989                     -37.93180                       0.00189
                       6.37131                     -34.84144                       0.00235
                       4.38995                     -24.03033                       0.00604
                       2.26810                     -12.42498                       0.00479
                      -0.00030                      -0.00011                       0.00069
                       2.55940                       0.56845                      -0.00780
                      -9.73049                       4.62075                      -0.52455
                     -21.24056                       8.36073                      -1.05732
                     -31.88074                      11.92686                      -1.35110
                     -34.89598                      12.97786                      -1.37288
                     -41.60688                      15.45308                      -1.23630
                     -50.42419                      18.99678                      -0.68995
                     -58.34254                      22.41540                       0.03074
                     -65.38240                      25.52904                       0.67387
                     -71.58357                      28.14041                       1.04117
                     -76.98493                      30.11457                       1.07099
                     -81.60251                      31.43726                       0.84436
                     -85.42755                      32.19812                       0.50658
                     -88.43729                      32.53462                       0.18761
                     -90.60426                      32.59231                      -0.03405
                     -91.90620                      32.49192                      -0.14130
                     -92.33182                      32.30852                      -0.16643
                     -91.88083                      32.06631                      -0.16666
                     -90.56303                      31.74330                      -0.19894
                     -88.39423                      31.28566                      -0.30085
                     -85.39406                      30.62245                      -0.48070
                     -81.58463                      29.67002                      -0.71107
                     -76.98667                      28.34043                      -0.92855
                     -71.61598                      26.56257                      -1.04884
                     -65.47839                      24.30799                      -1.00031
                     -58.56469                      21.61107                      -0.77026
                     -50.85578                      18.55967                      -0.42838
                     -42.33266                      15.25263                      -0.09633
                     -35.87398                      12.82779                       0.06113
                     -32.98048                      11.76429                       0.10181
                     -22.79955                       8.08116                       0.16061
                     -11.80142                       4.17344                       0.10677
                      -0.00030                      -0.00011                       0.00069
                       2.55940                       0.56845                      -0.00780
                      11.74179                       8.65092                      -0.51819
                      20.18419                      16.16622                      -1.07516
                      28.03150                      23.04594                      -1.42140
                      30.28713                      24.97777                      -1.46089
                      35.42757                      29.20725                      -1.35575
                      42.42597                      34.59722                      -0.82885
                      48.92907                      39.31246                      -0.09883
                      54.82063                      43.48327                       0.58199
                      59.97236                      47.26071                       1.00911
                      64.29018                      50.76173                       1.10291
                      67.74738                      54.02364                       0.91890
                      70.38586                      56.99938                       0.59073
                      72.28939                      59.58620                       0.25619
                      73.55397                      61.65619                       0.01012
                      74.26389                      63.08653                      -0.11588
                      74.47150                      63.78714                      -0.14896
                      74.18692                      63.71437                      -0.15046
                      73.38189                      62.87133                      -0.18489
                      71.99689                      61.30259                      -0.29249
                      69.95889                      59.07911                      -0.47312
                      67.19564                      56.28127                      -0.68396
                      63.64962                      52.98037                      -0.85211
                      59.29807                      49.21799                      -0.90631
                      54.15705                      44.99924                      -0.80806
                      48.27457                      40.29644                      -0.57158
                      41.71991                      35.05953                      -0.27127
                      34.55373                      29.24176                      -0.00371
                      29.19210                      24.80866                       0.12216
                      26.80787                      22.81914                       0.15860
                      18.47165                      15.80683                       0.22149
                       9.54306                       8.19949                       0.16303
                      -0.00030                      -0.00011                       0.00069
                       0.02183                      -0.17966                       0.00204
                       0.67538                      -3.76373                       0.00106
                       1.36441                      -7.53618                       0.00185
                       2.05617                     -11.31801                       0.00352
                       2.75025                     -15.10775                       0.00527
                       3.44622                     -18.90396                       0.00650
                       4.14368                     -22.70521                       0.00687
                       4.84220                     -26.51004                       0.00625
                       5.54136                     -30.31703                       0.00476
                       6.24072                     -34.12475                       0.00302
                       6.93989                     -37.93180                       0.00189
                      -0.18004                       0.05820                       0.00204
                      -3.60149                       1.28204                       0.04694
                      -7.19108                       2.56612                       0.09175
                     -10.77920                       3.84978                       0.13075
                     -14.36608                       5.13307                       0.16087
                     -17.95194                       6.41604                       0.17960
                     -21.53701                       7.69876                       0.18507
                     -25.12152                       8.98125                       0.17611
                     -28.70570                      10.26356                       0.15228
                     -32.28978                      11.54573                       0.11369
                     -35.87398                      12.82779                       0.06113
                       0.12689                       0.11409                       0.00204
                       2.90033                       2.46883                       0.05184
                       5.81454                       4.94369                       0.10143
                       8.73155                       7.42143                       0.14519
                      11.65092                       9.90160                       0.18032
                      14.57221                      12.38375                       0.20453
                      17.49499                      14.86743                       0.21610
                      20.41882                      17.35220                       0.21391
                      23.34324                      19.83762                       0.19752
                      26.26781                      22.32325                       0.16678
                      29.19210                      24.80866                       0.12216
                       1.03649                      -0.03494                       0.00286
                       1.69346                      -3.63256                       0.11337
                       2.38558                      -7.41596                       0.29847
                       3.08007                     -11.20577                       0.54094
                       3.77662                     -15.00095                       0.82747
                       4.47488                     -18.80049                       1.14529
                       5.17441                     -22.60335                       1.48227
                       5.87477                     -26.40850                       1.82709
                       6.57552                     -30.21492                       2.16932
                       7.27614                     -34.02157                       2.49939
                       7.97619                     -37.82742                       2.80885
                       0.83463                       0.20292                       0.00286
                      -2.59969                       1.43063                      -0.18175
                      -6.19861                       2.71726                      -0.37889
                      -9.79252                       4.00216                      -0.57304
                     -13.38242                       5.28569                      -0.75781
                     -16.96932                       6.56820                      -0.92719
                     -20.55425                       7.85006                      -1.07566
                     -24.13828                       9.13162                      -1.19836
                     -27.72250                      10.41323                      -1.29109
                     -31.30802                      11.69521                      -1.35023
                     -34.89598                      12.97786                      -1.37288
                       1.14155                       0.25881                       0.00286
                       3.92794                       2.62348                      -0.17581
                       6.85475                       5.10700                      -0.36827
                       9.78326                       7.59165                      -0.56060
                      12.71294                      10.07701                      -0.74746