<?xml version="1.0"?>
<VTKFile type="PolyData" version="0.1" byte_order="LittleEndian">
  <PolyData>
    <Piece NumberOfPoints="     10" NumberOfVerts="  0" NumberOfLines="      9"
           NumberOfStrips="  0" NumberOfPolys="      0">
      <Points>
        <DataArray type="Float32" NumberOfComponents="3" format="ascii">
                      -0.06962                      -0.00910                     101.06346
                      -2.38421                      -0.34636                     101.06710
                      -4.69880                      -0.68355                     101.07346
                      -7.01338                      -1.02077                     101.08199
                      -9.32795                      -1.35797                     101.09223
                     -11.64193                      -1.69913                     101.11784
                     -13.95659                      -2.03539                     101.13121
                     -16.27095                      -2.37366                     101.14481
                     -18.58530                      -2.71190                     101.15711
                     -20.89965                      -3.05008                     101.16743
        </DataArray>
      </Points>
      <PointData>
        <DataArray type="Float32" Name="TranslationalVelocity" NumberOfComponents="3" format="ascii">
                       0.81564                      -0.05355                       0.00392
                       1.42622                      -4.24969                       0.12000
                       2.03808                      -8.45411                       0.31408
                       2.65127                     -12.66544                       0.56913
                       3.26556                     -16.88245                       0.86878
                       3.88890                     -21.10475                       1.19957
                       4.50330                     -25.32962                       1.54119
                       5.12170                     -29.55564                       1.88061
                       5.73997                     -33.78211                       2.20447
                       6.35783                     -38.00775                       2.50002
        </DataArray>
        <DataArray type="Float32" Name="RotationalVelocity" NumberOfComponents="3" format="ascii">
                      -0.02434                       0.02719                       1.81024
                      -0.02902                       0.05943                       1.81357
                      -0.03304                       0.08727                       1.81663
                      -0.03618                       0.10913                       1.81925
                      -0.03846                       0.12523                       1.82141
                      -0.04060                       0.14110                       1.82437
                      -0.04054                       0.14141                       1.82516
                      -0.03978                       0.13701                       1.82548
                      -0.03843                       0.12779                       1.82533
                      -0.03649                       0.11452                       1.82471
        </DataArray>
        <DataArray type="Float32" Name="TranslationalAcceleration" NumberOfComponents="3" format="ascii">
                      11.23695                      -1.78499                      -0.12019
                      12.43741                      -1.83442                       0.80147
                      13.33855                      -1.99718                       2.14136
                      14.25388                      -2.21052                       3.77853
                      15.17689                      -2.46725                       5.65206
                       9.25665                      -4.20132                       9.85559
                      10.13971                      -4.54325                      12.11073
                      10.99580                      -4.88806                      14.18392
                      11.85883                      -5.24526                      16.36035
                      12.68727                      -5.59717                      18.98358
        </DataArray>
        <DataArray type="Float32" Name="OrientationX" NumberOfComponents="3" format="ascii">
                       0.00014                      -0.00036                       1.00000
                       0.00005                      -0.00041                       1.00000
                      -0.00008                      -0.00045                       1.00000
                      -0.00021                      -0.00048                       1.00000
                      -0.00035                      -0.00050                       1.00000
                      -0.00064                      -0.00050                       1.00000
                      -0.00105                      -0.00052                       1.00000
                      -0.00234                      -0.00086                       1.00000
                      -0.00347                      -0.00116                       0.99999
                      -0.00010                      -0.00018                       1.00000
        </DataArray>
        <DataArray type="Float32" Name="OrientationY" NumberOfComponents="3" format="ascii">
                      -0.14537                       0.98938                       0.00037
                      -0.14491                       0.98944                       0.00041
                      -0.14442                       0.98952                       0.00044
                      -0.14390                       0.98959                       0.00045
                      -0.14339                       0.98967                       0.00045
                      -0.14239                       0.98981                       0.00041
                      -0.14458                       0.98949                       0.00036
                      -0.14459                       0.98949                       0.00051
                      -0.14459                       0.98949                       0.00064
                      -0.14698                       0.98914                       0.00017
        </DataArray>
        <DataArray type="Float32" Name="OrientationZ" NumberOfComponents="3" format="ascii">
                      -0.98938                      -0.14537                       0.00009
                      -0.98944                      -0.14491                      -0.00001
                      -0.98952                      -0.14442                      -0.00014
                      -0.98959                      -0.14390                      -0.00028
                      -0.98967                      -0.14339                      -0.00042
                      -0.98981                      -0.14239                      -0.00070
                      -0.98949                      -0.14458                      -0.00111
                      -0.98949                      -0.14458                      -0.00244
                      -0.98949                      -0.14459                      -0.00360
                      -0.98914                      -0.14698                      -0.00012
        </DataArray>
      </PointData>
      <Lines>
        <DataArray type="Int32" Name="connectivity" format="ascii">
      0      1
      1      2
      2      3
      3      4
      4      5
      5      6
      6      7
      7      8
      8      9
        </DataArray>
        <DataArray type="Int32" Name="offsets" format="ascii">
      2
      4
      6
      8
     10
     12
     14
     16
     18
        </DataArray>
      </Lines>
    </Piece>
  </PolyData>
</VTKFile>
