# vtk DataFile Version 2.0
BldPointCP.BldA
ASCII
 
DATASET POLYDATA
POINTS 9 double
 -0.11128214E+002 -0.22525169E+001  0.10645908E+003
 -0.27499816E+002 -0.55838816E+001  0.94781107E+002
 -0.40455828E+002 -0.82617471E+001  0.82510592E+002
 -0.49175646E+002 -0.10088987E+002  0.70203111E+002
 -0.52006626E+002 -0.10691497E+002  0.58213642E+002
 -0.49184661E+002 -0.10108353E+002  0.46225485E+002
 -0.40460760E+002 -0.82760320E+001  0.33915468E+002
 -0.27528617E+002 -0.55897638E+001  0.21614902E+002
 -0.11234291E+002 -0.22734193E+001  0.98264090E+001
  
POINT_DATA 9
SCALARS Gamma_LL double
LOOKUP_TABLE default
 -0.50095155E+001
 -0.16144714E+003
 -0.14392381E+003
 -0.12148782E+003
 -0.11515820E+003
 -0.10810995E+003
 -0.11885418E+003
 -0.14990370E+003
 -0.71660577E+002
VECTORS Vind_CP double
  0.94711625E-001 -0.24907915E+000  0.11440406E+000
 -0.45197113E+000  0.14800882E-001  0.45710475E+000
 -0.59037072E+000 -0.23490878E-001  0.41863793E+000
 -0.79285861E+000 -0.77802405E-001  0.25036125E+000
 -0.89464749E+000 -0.10805375E+000  0.83606097E-002
 -0.71818733E+000 -0.82791280E-001 -0.19861505E+000
 -0.49634657E+000 -0.30948217E-001 -0.33050245E+000
 -0.46326605E+000 -0.18891858E-001 -0.44289896E+000
 -0.17015794E+000 -0.10950786E-001 -0.68162899E-001
VECTORS Vtot_CP double
  0.11327669E+002  0.19913091E+002 -0.14572342E+001
  0.57641346E+001  0.50596968E+002 -0.30104136E+001
  0.11731674E+000  0.74988468E+002 -0.29715153E+001
 -0.48291758E+001  0.91685820E+002 -0.22436185E+001
 -0.65128900E+001  0.97315056E+002 -0.22131257E+001
 -0.47439122E+001  0.91856205E+002 -0.21604136E+001
  0.16965666E+000  0.75046461E+002 -0.14052769E+001
  0.62506111E+001  0.50573524E+002 -0.65452191E+000
  0.12889359E+002  0.20481708E+002 -0.72889611E-001
VECTORS Vstr_CP double
  0.59670425E+001 -0.20162171E+002  0.15716383E+001
  0.10983894E+002 -0.50582167E+002  0.34675184E+001
  0.16492313E+002 -0.75011959E+002  0.33901532E+001
  0.21236317E+002 -0.91763623E+002  0.24939798E+001
  0.22818242E+002 -0.97423110E+002  0.22214864E+001
  0.21225725E+002 -0.91938997E+002  0.19617985E+001
  0.16533997E+002 -0.75077409E+002  0.10747744E+001
  0.10486123E+002 -0.50592416E+002  0.21162295E+000
  0.41404832E+001 -0.20492659E+002  0.47267112E-002
VECTORS Vwnd_CP double
  0.17200000E+002 -0.00000000E+000  0.00000000E+000
  0.17200000E+002 -0.00000000E+000  0.00000000E+000
  0.17200000E+002 -0.00000000E+000  0.00000000E+000
  0.17200000E+002 -0.00000000E+000  0.00000000E+000
  0.17200000E+002 -0.00000000E+000  0.00000000E+000
  0.17200000E+002 -0.00000000E+000  0.00000000E+000
  0.17200000E+002 -0.00000000E+000  0.00000000E+000
  0.17200000E+002 -0.00000000E+000  0.00000000E+000
  0.17200000E+002 -0.00000000E+000  0.00000000E+000
VECTORS Tangent double
 -0.83947024E+000  0.54336404E+000 -0.67254807E-002
 -0.20291885E+000  0.97919554E+000  0.17821423E-003
 -0.20132800E+000  0.97952378E+000 -0.44681360E-003
 -0.19343714E+000  0.98111100E+000 -0.18132466E-002
 -0.18991835E+000  0.98179988E+000 -0.13534634E-003
 -0.18950346E+000  0.98188000E+000  0.33348404E-003
 -0.19112051E+000  0.98156653E+000  0.31286873E-003
 -0.19381168E+000  0.98103856E+000  0.61739325E-003
 -0.19578380E+000  0.98064699E+000  0.43263706E-003
VECTORS Normal double
 -0.35078280E+000 -0.53240641E+000  0.77038616E+000
 -0.62914628E+000 -0.13051754E+000  0.76625070E+000
 -0.70174553E+000 -0.14391612E+000  0.69774018E+000
 -0.88040693E+000 -0.17276600E+000  0.44162829E+000
 -0.98179948E+000 -0.18991815E+000  0.93874861E-003
 -0.88100066E+000 -0.16988371E+000 -0.44156240E+000
 -0.70308497E+000 -0.13667502E+000 -0.69784774E+000
 -0.63359468E+000 -0.12469096E+000 -0.76355088E+000
 -0.50184941E+000 -0.99813972E-001 -0.85917655E+000
VECTORS Orth double
 -0.41501945E+000 -0.64907544E+000 -0.63754210E+000
 -0.75033253E+000 -0.15537459E+000 -0.64254170E+000
 -0.68338880E+000 -0.14078819E+000 -0.71635078E+000
 -0.43297310E+000 -0.87023708E-001 -0.89719628E+000
 -0.89595855E-003 -0.31116855E-003 -0.99999955E+000
  0.43350464E+000  0.83971403E-001 -0.89723048E+000
  0.68494122E+000  0.13359299E+000 -0.71624608E+000
  0.74899587E+000  0.14837625E+000 -0.64574737E+000
  0.84250571E+000  0.16842997E+000 -0.51167907E+000
