# vtk DataFile Version 2.0
BldPointCP.BldB
ASCII
 
DATASET POLYDATA
POINTS 9 double
  0.26926561E+001  0.11242931E+002  0.10625131E+003
  0.61334958E+001  0.27548758E+002  0.94483247E+002
  0.89331019E+001  0.40640676E+002  0.82386137E+002
  0.10819059E+002  0.49357187E+002  0.70125975E+002
  0.11420102E+002  0.52033804E+002  0.58080015E+002
  0.10825061E+002  0.49193959E+002  0.46056341E+002
  0.89241958E+001  0.40484643E+002  0.33766007E+002
  0.60636560E+001  0.27484642E+002  0.21573991E+002
  0.24704337E+001  0.11192535E+002  0.98389047E+001
  
POINT_DATA 9
SCALARS Gamma_LL double
LOOKUP_TABLE default
  0.10633772E+003
  0.48251395E+002
  0.19389485E+002
  0.17378730E+002
  0.35923587E+002
  0.31130226E+002
  0.22339111E+002
  0.31191795E+002
  0.37451714E+002
VECTORS Vind_CP double
 -0.27599416E-001 -0.11477044E+000 -0.45312445E+000
 -0.73009685E-001 -0.16500135E+000 -0.22256663E+000
 -0.48689270E-001 -0.11390631E+000 -0.52623991E-001
 -0.55115898E-001 -0.20169096E+000 -0.12037765E-001
 -0.89906027E-001 -0.40285548E+000  0.29319295E-001
 -0.10358158E+000 -0.35916812E+000  0.10967299E+000
 -0.73179545E-001 -0.20589876E+000  0.12159684E+000
 -0.61190036E-001 -0.18338822E+000  0.17320024E+000
 -0.11944279E+000 -0.67972225E-001  0.10719571E+000
VECTORS Vtot_CP double
  0.34944162E+002 -0.50178723E+001  0.15829366E+000
  0.65744237E+002 -0.11596142E+002  0.59695057E+000
  0.90422966E+002 -0.17426097E+002  0.89135976E-001
  0.10677584E+003 -0.20859666E+002 -0.85274548E-001
  0.11168494E+003 -0.21321346E+002  0.13643170E+000
  0.10621431E+003 -0.19869975E+002  0.30805971E+000
  0.90172294E+002 -0.16472532E+002  0.44231886E+000
  0.66640616E+002 -0.11258770E+002  0.37314631E+000
  0.37244415E+002 -0.45203782E+001  0.12199692E+000
VECTORS Vstr_CP double
 -0.17771762E+002  0.49031018E+001 -0.61141811E+000
 -0.48617247E+002  0.11431140E+002 -0.81951720E+000
 -0.73271655E+002  0.17312190E+002 -0.14175997E+000
 -0.89630952E+002  0.20657975E+002  0.73236783E-001
 -0.94574846E+002  0.20918491E+002 -0.10711240E+000
 -0.89117894E+002  0.19510807E+002 -0.19838672E+000
 -0.73045474E+002  0.16266633E+002 -0.32072203E+000
 -0.49501806E+002  0.11075381E+002 -0.19994607E+000
 -0.20163858E+002  0.44524060E+001 -0.14801216E-001
VECTORS Vwnd_CP double
  0.17200000E+002  0.00000000E+000  0.00000000E+000
  0.17200000E+002  0.00000000E+000  0.00000000E+000
  0.17200000E+002  0.00000000E+000  0.00000000E+000
  0.17200000E+002  0.00000000E+000  0.00000000E+000
  0.17200000E+002  0.00000000E+000  0.00000000E+000
  0.17200000E+002  0.00000000E+000  0.00000000E+000
  0.17200000E+002  0.00000000E+000  0.00000000E+000
  0.17200000E+002  0.00000000E+000  0.00000000E+000
  0.17200000E+002  0.00000000E+000  0.00000000E+000
VECTORS Tangent double
  0.87977224E+000 -0.47539295E+000  0.15334458E-002
  0.97331114E+000 -0.22945761E+000 -0.38261567E-002
  0.97780446E+000 -0.20948331E+000 -0.38969382E-002
  0.97794870E+000 -0.20883991E+000 -0.14930545E-002
  0.97551849E+000 -0.21991721E+000 -0.31133308E-003
  0.97643106E+000 -0.21582912E+000 -0.41517622E-003
  0.97749590E+000 -0.21095431E+000 -0.22388168E-003
  0.97647123E+000 -0.21564769E+000  0.68256617E-004
  0.97611655E+000 -0.21717140E+000  0.57500452E-002
VECTORS Normal double
  0.25315960E+000  0.47122786E+000  0.84489912E+000
  0.14876815E+000  0.61817315E+000  0.77183547E+000
  0.15022795E+000  0.68801096E+000  0.70998062E+000
  0.18936362E+000  0.88368539E+000  0.42806723E+000
  0.21990473E+000  0.97547637E+000 -0.93684510E-002
  0.19418925E+000  0.87936656E+000 -0.43474704E+000
  0.14974643E+000  0.69462457E+000 -0.70361404E+000
  0.13789389E+000  0.62415197E+000 -0.76903809E+000
  0.11609583E+000  0.49907692E+000 -0.85874559E+000
VECTORS Orth double
  0.40238168E+000  0.74293059E+000 -0.53492348E+000
  0.17473830E+000  0.75180527E+000 -0.63581080E+000
  0.14604796E+000  0.69480765E+000 -0.70421043E+000
  0.88078130E-001  0.41891052E+000 -0.90374566E+000
 -0.23639817E-002 -0.90706335E-002 -0.99995607E+000
 -0.94196162E-001 -0.42441989E+000 -0.90055252E+000
 -0.14858593E+000 -0.68774631E+000 -0.71058232E+000
 -0.16579868E+000 -0.75095299E+000 -0.63920295E+000
 -0.18362527E+000 -0.83890334E+000 -0.51236994E+000
