<?xml version="1.0"?>
<VTKFile type="PolyData" version="0.1" byte_order="LittleEndian">
  <PolyData>
    <Piece NumberOfPoints="     10" NumberOfVerts="  0" NumberOfLines="      9"
           NumberOfStrips="  0" NumberOfPolys="      0">
      <Points>
        <DataArray type="Float32" NumberOfComponents="3" format="ascii">
                       0.09127                      -0.07327                     101.06346
                       1.54086                      -1.90932                     101.05792
                       2.99012                      -3.74565                     101.05178
                       4.43921                      -5.58212                     101.04502
                       5.88805                      -7.41878                     101.03773
                       7.33370                      -9.25839                     101.03013
                       8.78273                     -11.09487                     101.02254
                      10.23143                     -12.93160                     101.01560
                      11.67943                     -14.76887                     101.00996
                      13.12700                     -16.60645                     101.00718
        </DataArray>
      </Points>
      <PointData>
        <DataArray type="Float32" Name="TranslationalVelocity" NumberOfComponents="3" format="ascii">
                       0.93121                       0.23623                       0.00392
                       4.25719                       2.85889                      -0.17446
                       7.58417                       5.48122                      -0.35828
                      10.91143                       8.10332                      -0.54202
                      14.23873                      10.72477                      -0.71976
                      17.57336                      13.33819                      -0.88448
                      20.89846                      15.95862                      -1.02847
                      24.22242                      18.57717                      -1.14543
                      27.54526                      21.19280                      -1.22764
                      30.86614                      23.80560                      -1.26657
        </DataArray>
        <DataArray type="Float32" Name="RotationalVelocity" NumberOfComponents="3" format="ascii">
                       0.06318                       0.03989                       1.81024
                       0.05982                       0.04914                       1.81051
                       0.05483                       0.05773                       1.81064
                       0.04825                       0.06506                       1.81062
                       0.03997                       0.07107                       1.81044
                       0.01796                       0.07879                       1.80951
                       0.00406                       0.08038                       1.80875
                      -0.01190                       0.08035                       1.80777
                      -0.03025                       0.07832                       1.80656
                      -0.05093                       0.07445                       1.80508
        </DataArray>
        <DataArray type="Float32" Name="TranslationalAcceleration" NumberOfComponents="3" format="ascii">
                      11.23695                      -1.78499                      -0.12019
                      10.69545                      -0.67353                      -1.68504
                      10.44301                       0.25776                      -3.30997
                      10.26437                       1.24626                      -4.82924
                      10.15241                       2.28419                      -6.20058
                      14.85841                      -1.53537                      -8.32420
                      14.88347                      -0.40089                      -9.26563
                      14.93403                       0.74417                      -9.99836
                      15.01719                       1.88230                     -10.60238
                      15.10723                       3.00446                     -11.22180
        </DataArray>
        <DataArray type="Float32" Name="OrientationX" NumberOfComponents="3" format="ascii">
                       0.00145                      -0.00118                       1.00000
                       0.00170                      -0.00147                       1.00000
                       0.00194                      -0.00174                       1.00000
                       0.00215                      -0.00198                       1.00000
                       0.00233                      -0.00217                       0.99999
                       0.00246                      -0.00226                       0.99999
                       0.00236                      -0.00207                       1.00000
                       0.00213                      -0.00171                       1.00000
                       0.00097                      -0.00065                       1.00000
                      -0.00124                       0.00481                       0.99999
        </DataArray>
        <DataArray type="Float32" Name="OrientationY" NumberOfComponents="3" format="ascii">
                      -0.78360                      -0.62126                       0.00040
                      -0.78358                      -0.62129                       0.00042
                      -0.78358                      -0.62129                       0.00044
                      -0.78363                      -0.62123                       0.00045
                      -0.78375                      -0.62107                       0.00048
                      -0.78439                      -0.62027                       0.00053
                      -0.78504                      -0.61944                       0.00057
                      -0.78594                      -0.61831                       0.00062
                      -0.78651                      -0.61757                       0.00036
                      -0.78179                      -0.62354                       0.00203
        </DataArray>
        <DataArray type="Float32" Name="OrientationZ" NumberOfComponents="3" format="ascii">
                       0.62126                      -0.78360                      -0.00183
                       0.62128                      -0.78358                      -0.00221
                       0.62129                      -0.78358                      -0.00257
                       0.62123                      -0.78362                      -0.00289
                       0.62107                      -0.78375                      -0.00314
                       0.62027                      -0.78438                      -0.00330
                       0.61944                      -0.78504                      -0.00309
                       0.61830                      -0.78594                      -0.00266
                       0.61757                      -0.78651                      -0.00111
                       0.62354                      -0.78178                       0.00453
        </DataArray>
      </PointData>
      <Lines>
        <DataArray type="Int32" Name="connectivity" format="ascii">
      0      1
      1      2
      2      3
      3      4
      4      5
      5      6
      6      7
      7      8
      8      9
        </DataArray>
        <DataArray type="Int32" Name="offsets" format="ascii">
      2
      4
      6
      8
     10
     12
     14
     16
     18
        </DataArray>
      </Lines>
    </Piece>
  </PolyData>
</VTKFile>
