# vtk DataFile Version 2.0
BldPointCP.BldA
ASCII
 
DATASET POLYDATA
POINTS 9 double
 -0.10926494E+002 -0.28529072E+001  0.10651014E+003
 -0.27130969E+002 -0.70943102E+001  0.94894634E+002
 -0.39902354E+002 -0.10504687E+002  0.82620810E+002
 -0.48456663E+002 -0.12830695E+002  0.70284528E+002
 -0.51234141E+002 -0.13600189E+002  0.58287171E+002
 -0.48464662E+002 -0.12856259E+002  0.46293269E+002
 -0.39900065E+002 -0.10517441E+002  0.33955450E+002
 -0.27174165E+002 -0.70972580E+001  0.21623087E+002
 -0.11093034E+002 -0.28853718E+001  0.98267680E+001
  
POINT_DATA 9
SCALARS Gamma_LL double
LOOKUP_TABLE default
 -0.45978567E+001
 -0.15980132E+003
 -0.14411729E+003
 -0.11440126E+003
 -0.99974593E+002
 -0.92543669E+002
 -0.10746903E+003
 -0.14353039E+003
 -0.65020927E+002
VECTORS Vind_CP double
  0.10553817E+000 -0.27160788E+000  0.11117377E+000
 -0.54381042E+000  0.20928393E-001  0.53553394E+000
 -0.77082513E+000 -0.31450898E-001  0.54226606E+000
 -0.99570296E+000 -0.11028473E+000  0.31220008E+000
 -0.10254696E+001 -0.15820149E+000  0.19049432E-001
 -0.85473945E+000 -0.10904646E+000 -0.21314113E+000
 -0.61477742E+000 -0.37827316E-001 -0.39649471E+000
 -0.54358858E+000 -0.22646665E-001 -0.51089742E+000
 -0.18968611E+000 -0.65659815E-002 -0.72513820E-001
VECTORS Vtot_CP double
  0.98660904E+001  0.19598813E+002 -0.15357699E+001
  0.27473126E+001  0.50146388E+002 -0.33175666E+001
 -0.42335732E+001  0.74325889E+002 -0.35198223E+001
 -0.10481922E+002  0.90751441E+002 -0.27801503E+001
 -0.12696385E+002  0.96267742E+002 -0.26731459E+001
 -0.10543473E+002  0.90832968E+002 -0.26067204E+001
 -0.44678592E+001  0.74160847E+002 -0.18268788E+001
  0.32383711E+001  0.49967048E+002 -0.89068581E+000
  0.11743869E+002  0.20245363E+002 -0.88377825E-001
VECTORS Vstr_CP double
  0.74394477E+001 -0.19870421E+002  0.16469436E+001
  0.13908877E+002 -0.50125460E+002  0.38531006E+001
  0.20662748E+002 -0.74357340E+002  0.40620884E+001
  0.26686219E+002 -0.90861725E+002  0.30923504E+001
  0.28870916E+002 -0.96425943E+002  0.26921954E+001
  0.26888734E+002 -0.90942015E+002  0.23935793E+001
  0.21053082E+002 -0.74198674E+002  0.14303841E+001
  0.13418040E+002 -0.49989694E+002  0.37978839E+000
  0.52664449E+001 -0.20251929E+002  0.15864005E-001
VECTORS Vwnd_CP double
  0.17200000E+002  0.00000000E+000  0.00000000E+000
  0.17200000E+002  0.00000000E+000  0.00000000E+000
  0.17200000E+002  0.00000000E+000  0.00000000E+000
  0.17200000E+002  0.00000000E+000  0.00000000E+000
  0.17200000E+002  0.00000000E+000  0.00000000E+000
  0.17200000E+002  0.00000000E+000  0.00000000E+000
  0.17200000E+002  0.00000000E+000  0.00000000E+000
  0.17200000E+002  0.00000000E+000  0.00000000E+000
  0.17200000E+002  0.00000000E+000  0.00000000E+000
VECTORS Tangent double
 -0.86794907E+000  0.49654516E+000 -0.10359688E-001
 -0.25714426E+000  0.96637293E+000 -0.43478137E-003
 -0.25406656E+000  0.96718498E+000 -0.18456645E-002
 -0.24194999E+000  0.97028200E+000 -0.36123907E-002
 -0.23686261E+000  0.97154316E+000 -0.12193790E-004
 -0.23748972E+000  0.97138869E+000  0.16249511E-002
 -0.24102892E+000  0.97051725E+000  0.11499087E-002
 -0.24516492E+000  0.96948085E+000  0.10262277E-002
 -0.24788059E+000  0.96879034E+000  0.69766036E-003
VECTORS Normal double
 -0.32080360E+000 -0.54458936E+000  0.77492417E+000
 -0.61876451E+000 -0.16430276E+000  0.76820250E+000
 -0.69602843E+000 -0.18151169E+000  0.69469269E+000
 -0.87204377E+000 -0.21581782E+000  0.43927479E+000
 -0.97154221E+000 -0.23686236E+000  0.13955081E-002
 -0.87254608E+000 -0.21258842E+000 -0.43985169E+000
 -0.69810026E+000 -0.17255055E+000 -0.69489735E+000
 -0.62691503E+000 -0.15772834E+000 -0.76295433E+000
 -0.49587597E+000 -0.12625913E+000 -0.85916567E+000
VECTORS Orth double
 -0.37914307E+000 -0.67591814E+000 -0.63196931E+000
 -0.74229866E+000 -0.19780789E+000 -0.64020679E+000
 -0.67156133E+000 -0.17778282E+000 -0.71930429E+000
 -0.42544080E+000 -0.10943269E+000 -0.89834549E+000
 -0.13529081E-002 -0.34239047E-003 -0.99999903E+000
  0.42692151E+000  0.10587810E+000 -0.89806896E+000
  0.67421145E+000  0.16829311E+000 -0.71910802E+000
  0.73950774E+000  0.18769299E+000 -0.64645157E+000
  0.83226332E+000  0.21331645E+000 -0.51169704E+000
