<?xml version="1.0"?>
<VTKFile type="PolyData" version="0.1" byte_order="LittleEndian">
  <PolyData>
    <Piece NumberOfPoints="     10" NumberOfVerts="  0" NumberOfLines="      9"
           NumberOfStrips="  0" NumberOfPolys="      0">
      <Points>
        <DataArray type="Float32" NumberOfComponents="3" format="ascii">
                       0.03347                       0.09425                      15.12064
                       0.82141                       2.29664                      15.12679
                       1.60926                       4.49908                      15.13310
                       2.39717                       6.70148                      15.13878
                       3.18512                       8.90387                      15.14350
                       3.96844                      11.10803                      15.14787
                       4.75695                      13.31020                      15.14841
                       5.54539                      15.51237                      15.14750
                       6.33366                      17.71458                      15.14500
                       7.12168                      19.91685                      15.14080
        </DataArray>
      </Points>
      <PointData>
        <DataArray type="Float32" Name="TranslationalVelocity" NumberOfComponents="3" format="ascii">
                      -0.18004                       0.05820                       0.00204
                      -4.15105                       1.47953                       0.05404
                      -8.12013                       2.89999                       0.10270
                     -12.08749                       4.31997                       0.14348
                     -16.05341                       5.73954                       0.17249
                     -20.02074                       7.15083                       0.18577
                     -23.98435                       8.57067                       0.18132
                     -27.94752                       9.99018                       0.15889
                     -31.91062                      11.40924                       0.11853
                     -35.87398                      12.82779                       0.06113
        </DataArray>
        <DataArray type="Float32" Name="RotationalVelocity" NumberOfComponents="3" format="ascii">
                       0.02473                       0.00336                       1.80379
                       0.02403                       0.00203                       1.80295
                       0.02168                       0.00119                       1.80218
                       0.01784                       0.00086                       1.80151
                       0.01275                       0.00096                       1.80096
                      -0.00008                       0.00209                       1.80019
                      -0.00719                       0.00290                       1.79997
                      -0.01435                       0.00372                       1.79986
                      -0.02134                       0.00453                       1.79985
                      -0.02780                       0.00516                       1.79996
        </DataArray>
        <DataArray type="Float32" Name="TranslationalAcceleration" NumberOfComponents="3" format="ascii">
                       0.13413                       0.03555                      -0.14250
                      -0.28181                      -1.01132                      -1.00346
                      -0.59496                      -1.75382                      -1.91258
                      -0.90896                      -2.49896                      -2.77700
                      -1.22012                      -3.25047                      -3.50478
                       0.74847                       2.34355                      -4.09572
                       0.46311                       1.54968                      -3.91524
                       0.19104                       0.73731                      -3.74963
                      -0.07051                      -0.03651                      -3.37313
                      -0.31676                      -0.81156                      -2.49805
        </DataArray>
        <DataArray type="Float32" Name="OrientationX" NumberOfComponents="3" format="ascii">
                      -0.00141                       0.00029                       1.00000
                      -0.00156                       0.00007                       1.00000
                      -0.00167                      -0.00015                       1.00000
                      -0.00169                      -0.00024                       1.00000
                      -0.00164                      -0.00027                       1.00000
                      -0.00019                      -0.00016                       1.00000
                      -0.00019                      -0.00024                       1.00000
                      -0.00017                      -0.00024                       1.00000
                      -0.00013                      -0.00017                       1.00000
                      -0.00040                      -0.00079                       1.00000
        </DataArray>
        <DataArray type="Float32" Name="OrientationY" NumberOfComponents="3" format="ascii">
                       0.94108                      -0.33818                       0.00142
                       0.94108                      -0.33819                       0.00149
                       0.94108                      -0.33819                       0.00152
                       0.94107                      -0.33822                       0.00151
                       0.94106                      -0.33825                       0.00145
                       0.94048                      -0.33986                       0.00012
                       0.94057                      -0.33959                       0.00010
                       0.94072                      -0.33920                       0.00008
                       0.94090                      -0.33869                       0.00007
                       0.94087                      -0.33878                       0.00011
        </DataArray>
        <DataArray type="Float32" Name="OrientationZ" NumberOfComponents="3" format="ascii">
                       0.33818                       0.94108                       0.00021
                       0.33819                       0.94108                       0.00047
                       0.33819                       0.94108                       0.00071
                       0.33822                       0.94107                       0.00080
                       0.33825                       0.94106                       0.00081
                       0.33986                       0.94048                       0.00021
                       0.33959                       0.94057                       0.00029
                       0.33920                       0.94072                       0.00028
                       0.33869                       0.94090                       0.00021
                       0.33878                       0.94087                       0.00088
        </DataArray>
      </PointData>
      <Lines>
        <DataArray type="Int32" Name="connectivity" format="ascii">
      0      1
      1      2
      2      3
      3      4
      4      5
      5      6
      6      7
      7      8
      8      9
        </DataArray>
        <DataArray type="Int32" Name="offsets" format="ascii">
      2
      4
      6
      8
     10
     12
     14
     16
     18
        </DataArray>
      </Lines>
    </Piece>
  </PolyData>
</VTKFile>
