<?xml version="1.0"?>
<VTKFile type="PolyData" version="0.1" byte_order="LittleEndian">
  <PolyData>
    <Piece NumberOfPoints="     10" NumberOfVerts="  0" NumberOfLines="      9"
           NumberOfStrips="  0" NumberOfPolys="      0">
      <Points>
        <DataArray type="Float32" NumberOfComponents="3" format="ascii">
                       0.01163                       0.00196                     113.18236
                     -20.51802                      -1.11088                     100.95270
                     -34.99155                      -1.89726                      88.71128
                     -47.10434                      -2.55814                      76.46256
                     -53.16179                      -2.89019                      64.21922
                     -53.16204                      -2.89055                      51.97730
                     -47.10353                      -2.56180                      39.73479
                     -34.99200                      -1.89913                      27.48384
                     -20.52123                      -1.11214                      15.24176
                       0.00011                       0.00002                       3.00007
        </DataArray>
      </Points>
      <PointData>
        <DataArray type="Float32" Name="TranslationalVelocity" NumberOfComponents="3" format="ascii">
                       0.89972                       0.15548                      -0.02789
                       2.26921                     -37.08448                       0.98524
                       3.75544                     -63.59013                       1.05194
                       5.38019                     -85.73035                       0.64867
                       6.13619                     -96.86851                       0.56169
                       6.10892                     -96.92889                       0.58021
                       5.34372                     -85.86444                       0.48243
                       3.50252                     -63.71094                      -0.08438
                       2.00158                     -37.11993                      -0.02827
                       0.00386                       0.00091                       0.00250
        </DataArray>
        <DataArray type="Float32" Name="RotationalVelocity" NumberOfComponents="3" format="ascii">
                      -0.01688                       0.05525                       1.80210
                      -0.01655                       0.04478                       1.80958
                      -0.05977                      -0.03264                       1.77644
                      -0.05089                      -0.02857                       1.76274
                      -0.01781                       0.00097                       1.79478
                       0.00877                      -0.00007                       1.79654
                       0.05222                       0.03626                       1.75804
                       0.07900                       0.03519                       1.76664
                       0.01499                      -0.01222                       1.80948
                       0.00585                       0.00059                       1.80138
        </DataArray>
        <DataArray type="Float32" Name="TranslationalAcceleration" NumberOfComponents="3" format="ascii">
                      30.64448                       2.41006                      -0.02066
                       5.42520                      -5.60321                      41.25832
                       9.56094                     -15.72619                      43.50552
                      28.34390                     -33.61644                      25.63659
                      37.47191                     -43.84467                      24.32873
                      35.23551                     -46.90759                      25.24595
                      22.62911                     -37.94409                      21.75434
                       0.58659                     -17.04299                       1.43977
                      -4.51918                      -6.41832                       0.88671
                      -0.19501                      -0.02672                       0.09336
        </DataArray>
        <DataArray type="Float32" Name="OrientationX" NumberOfComponents="3" format="ascii">
                       0.05423                      -0.99853                       0.00002
                      -0.99847                      -0.05521                       0.00011
                      -0.99839                      -0.05667                       0.00050
                      -0.99845                      -0.05568                       0.00024
                      -0.99850                      -0.05477                      -0.00001
                      -0.99851                      -0.05449                      -0.00029
                      -0.99858                      -0.05336                      -0.00073
                      -0.99857                      -0.05344                       0.00031
                      -0.99855                      -0.05381                       0.00004
                      -0.99853                      -0.05411                      -0.00083
        </DataArray>
        <DataArray type="Float32" Name="OrientationY" NumberOfComponents="3" format="ascii">
                      -0.99853                      -0.05423                      -0.00052
                      -0.05521                       0.99847                       0.00035
                      -0.05667                       0.99839                       0.00106
                      -0.05567                       0.99845                       0.00057
                      -0.05477                       0.99850                       0.00014
                      -0.05449                       0.99851                      -0.00051
                      -0.05335                       0.99857                      -0.00113
                      -0.05344                       0.99857                      -0.00011
                      -0.05381                       0.99855                      -0.00000
                      -0.05411                       0.99853                      -0.00000
        </DataArray>
        <DataArray type="Float32" Name="OrientationZ" NumberOfComponents="3" format="ascii">
                       0.00052                       0.00001                      -1.00000
                      -0.00012                       0.00034                      -1.00000
                      -0.00056                       0.00103                      -1.00000
                      -0.00027                       0.00056                      -1.00000
                       0.00000                       0.00014                      -1.00000
                       0.00032                      -0.00049                      -1.00000
                       0.00079                      -0.00109                      -1.00000
                      -0.00030                      -0.00013                      -1.00000
                      -0.00004                      -0.00001                      -1.00000
                       0.00083                       0.00004                      -1.00000
        </DataArray>
      </PointData>
      <Lines>
        <DataArray type="Int32" Name="connectivity" format="ascii">
      0      1
      1      2
      2      3
      3      4
      4      5
      5      6
      6      7
      7      8
      8      9
        </DataArray>
        <DataArray type="Int32" Name="offsets" format="ascii">
      2
      4
      6
      8
     10
     12
     14
     16
     18
        </DataArray>
      </Lines>
    </Piece>
  </PolyData>
</VTKFile>
