<?xml version="1.0"?>
<VTKFile type="PolyData" version="0.1" byte_order="LittleEndian">
  <PolyData>
    <Piece NumberOfPoints="     10" NumberOfVerts="  0" NumberOfLines="      9"
           NumberOfStrips="  0" NumberOfPolys="      0">
      <Points>
        <DataArray type="Float32" NumberOfComponents="3" format="ascii">
                       0.04784                      -0.01082                     101.06356
                      -2.18106                      -0.72027                     101.07768
                      -4.40976                      -1.43017                     101.10105
                      -6.63824                      -2.14049                     101.13156
                      -8.86655                      -2.85108                     101.16765
                     -11.09097                      -3.57295                     101.25632
                     -13.31966                      -4.28180                     101.30279
                     -15.54690                      -4.99517                     101.34923
                     -17.77415                      -5.70854                     101.39229
                     -20.00144                      -6.42176                     101.43089
        </DataArray>
      </Points>
      <PointData>
        <DataArray type="Float32" Name="TranslationalVelocity" NumberOfComponents="3" format="ascii">
                       1.77751                       0.00836                      -0.00227
                       3.06932                      -4.05083                       0.14937
                       4.36604                      -8.11922                       0.37610
                       5.66726                     -12.19513                       0.66433
                       6.97220                     -16.27712                       1.00106
                       8.30661                     -20.35761                       1.37659
                       9.61365                     -24.44846                       1.77474
                      10.92968                     -28.53848                       2.18577
                      12.24526                     -32.62895                       2.60086
                      13.55939                     -36.71847                       3.01292
        </DataArray>
        <DataArray type="Float32" Name="RotationalVelocity" NumberOfComponents="3" format="ascii">
                      -0.02632                       0.04074                       1.81785
                      -0.03558                       0.07008                       1.82198
                      -0.04379                       0.09627                       1.82577
                      -0.05049                       0.11790                       1.82898
                      -0.05573                       0.13515                       1.83161
                      -0.06213                       0.15748                       1.83515
                      -0.06350                       0.16317                       1.83603
                      -0.06385                       0.16571                       1.83633
                      -0.06335                       0.16566                       1.83604
                      -0.06218                       0.16347                       1.83515
        </DataArray>
        <DataArray type="Float32" Name="TranslationalAcceleration" NumberOfComponents="3" format="ascii">
                       9.78975                      -5.93434                      -0.08562
                      10.84802                      -5.78261                      -0.17024
                      11.60770                      -5.72873                      -0.49715
                      12.38360                      -5.66425                      -0.97737
                      13.17612                      -5.59041                      -1.55344
                       7.23119                      -7.79898                      -2.90984
                       8.06306                      -7.71413                      -3.48621
                       8.91501                      -7.60638                      -3.71965
                       9.74959                      -7.48924                      -3.78254
                      10.59920                      -7.36830                      -3.90367
        </DataArray>
        <DataArray type="Float32" Name="OrientationX" NumberOfComponents="3" format="ascii">
                       0.00023                      -0.00138                       1.00000
                       0.00000                      -0.00162                       1.00000
                      -0.00029                      -0.00184                       1.00000
                      -0.00062                      -0.00202                       1.00000
                      -0.00098                      -0.00217                       1.00000
                      -0.00177                      -0.00236                       1.00000
                      -0.00411                      -0.00291                       0.99999
                      -0.00813                      -0.00472                       0.99996
                      -0.01164                      -0.00632                       0.99991
                      -0.00804                      -0.00113                       0.99997
        </DataArray>
        <DataArray type="Float32" Name="OrientationY" NumberOfComponents="3" format="ascii">
                      -0.30436                       0.95256                       0.00139
                      -0.30361                       0.95280                       0.00155
                      -0.30276                       0.95306                       0.00166
                      -0.30187                       0.95335                       0.00174
                      -0.30096                       0.95364                       0.00177
                      -0.29910                       0.95422                       0.00172
                      -0.30400                       0.95267                       0.00152
                      -0.30401                       0.95267                       0.00202
                      -0.30402                       0.95266                       0.00248
                      -0.30840                       0.95125                      -0.00140
        </DataArray>
        <DataArray type="Float32" Name="OrientationZ" NumberOfComponents="3" format="ascii">
                      -0.95256                      -0.30436                      -0.00020
                      -0.95280                      -0.30361                      -0.00049
                      -0.95307                      -0.30276                      -0.00083
                      -0.95335                      -0.30187                      -0.00120
                      -0.95364                      -0.30096                      -0.00158
                      -0.95422                      -0.29910                      -0.00240
                      -0.95266                      -0.30399                      -0.00480
                      -0.95264                      -0.30398                      -0.00918
                      -0.95260                      -0.30396                      -0.01301
                      -0.95122                      -0.30841                      -0.00800
        </DataArray>
      </PointData>
      <Lines>
        <DataArray type="Int32" Name="connectivity" format="ascii">
      0      1
      1      2
      2      3
      3      4
      4      5
      5      6
      6      7
      7      8
      8      9
        </DataArray>
        <DataArray type="Int32" Name="offsets" format="ascii">
      2
      4
      6
      8
     10
     12
     14
     16
     18
        </DataArray>
      </Lines>
    </Piece>
  </PolyData>
</VTKFile>
