<?xml version="1.0"?>
<VTKFile type="PolyData" version="0.1" byte_order="LittleEndian">
  <PolyData>
    <Piece NumberOfPoints="    165" NumberOfVerts="  0" NumberOfLines="      0"
           NumberOfStrips="  0" NumberOfPolys="      0">
      <Points>
        <DataArray type="Float32" NumberOfComponents="3" format="ascii">
                       0.01163                       0.00196                     113.18236
                      -6.94283                      -0.37503                     109.51482
                     -13.41722                      -0.72610                     105.84587
                     -19.41179                      -1.05143                     102.17610
                     -21.11669                      -1.14403                     101.07519
                     -24.92661                      -1.35110                      98.50584
                     -29.96056                      -1.62489                      94.83348
                     -34.51382                      -1.87276                      91.15955
                     -38.58705                      -2.09466                      87.48508
                     -42.18071                      -2.29054                      83.81071
                     -45.29489                      -2.46038                      80.13654
                     -47.92990                      -2.60417                      76.46276
                     -50.08580                      -2.72194                      72.78935
                     -51.76255                      -2.81367                      69.11624
                     -52.96057                      -2.87932                      65.44347
                     -53.67978                      -2.91883                      61.77088
                     -53.91959                      -2.93216                      58.09827
                     -53.67979                      -2.91927                      54.42566
                     -52.96042                      -2.88018                      50.75311
                     -51.76209                      -2.81489                      47.08047
                     -50.08505                      -2.72347                      43.40754
                     -47.92919                      -2.60591                      39.73418
                     -45.29471                      -2.46219                      36.06014
                     -42.18140                      -2.29228                      32.38539
                     -38.58868                      -2.09618                      28.71031
                     -34.51629                      -1.87394                      25.03518
                     -29.96339                      -1.62568                      21.36113
                     -24.92942                      -1.35156                      17.68915
                     -21.11997                      -1.14440                      15.11936
                     -19.41554                      -1.05182                      14.01788
                     -13.42283                      -0.72674                      10.34574
                      -6.95102                      -0.37621                       6.67300
                       0.00011                       0.00002                       3.00007
                       0.01163                       0.00196                     113.18236
                       3.15855                       6.21252                     109.50960
                       6.08797                      11.99277                     105.83331
                       8.80048                      17.34331                     102.15537
                       9.57215                      18.86517                     101.05255
                      11.29832                      22.26898                      98.48352
                      13.58191                      26.77107                      94.81887
                      15.64878                      30.84500                      91.15358
                      17.49752                      34.48826                      87.48440
                      19.12790                      37.70077                      83.81187
                      20.54029                      40.48361                      80.13778
                      21.73496                      42.83751                      76.46317
                      22.71204                      44.76281                      72.78848
                      23.47163                      46.25975                      69.11390
                      24.01383                      47.32840                      65.43957
                      24.33883                      47.96910                      61.76559
                      24.44691                      48.18230                      58.09190
                      24.33815                      47.96814                      54.41828
                      24.01252                      47.32651                      50.74449
                      23.46980                      46.25698                      47.07044
                      22.70982                      44.75928                      43.39616
                      21.73253                      42.83334                      39.72169
                      20.53779                      40.47886                      36.04728
                      19.12542                      37.69547                      32.37335
                      17.49523                      34.48272                      28.70062
                      15.64686                      30.83984                      25.03045
                      13.58051                      26.76711                      21.36305
                      11.29719                      22.26649                      17.69593
                       9.57044                      18.86283                      15.12681
                       8.79812                      17.34050                      14.02485
                       6.08286                      11.98840                      10.35032
                       3.15036                       6.20841                       6.67501
                       0.00011                       0.00002                       3.00007
                       0.01163                       0.00196                     113.18236
                       3.81004                      -5.83300                     109.50977
                       7.34605                     -11.26388                     105.83424
                      10.62027                     -16.29107                     102.15733
                      11.55171                     -17.72086                     101.05467
                      13.63485                     -20.91820                      98.48515
                      16.39017                     -25.14650                      94.81884
                      18.88394                     -28.97265                      91.15223
                      21.11478                     -32.39478                      87.48267
                      23.08244                     -35.41276                      83.81047
                      24.78724                     -38.02736                      80.13695
                      26.22941                     -40.23905                      76.46289
                      27.40902                     -42.04803                      72.78860
                      28.32618                     -43.45449                      69.11432
                      28.98097                     -44.45859                      65.44019
                      29.37358                     -45.06063                      61.76634
                      29.50429                     -45.26100                      58.09273
                      29.37318                     -45.05981                      54.41918
                      28.98020                     -44.45695                      50.74548
                      28.32511                     -43.45205                      47.07158
                      27.40776                     -42.04483                      43.39754
                      26.22808                     -40.23517                      39.72347
                      24.78589                     -38.02283                      36.04964
                      23.08108                     -35.40763                      32.37635
                      21.11349                     -32.38935                      28.70407
                      18.88286                     -28.96762                      25.03366
                      16.38947                     -25.14279                      21.36502
                      13.63424                     -20.91619                      17.69627
                      11.55033                     -17.71935                      15.12652
                      10.61818                     -16.28933                      14.02457
                       7.34092                     -11.26152                      10.35048
                       3.80170                      -5.83182                       6.67544
                       0.00011                       0.00002                       3.00007
                      -0.09959                      -0.00532                      15.12034
                      -2.11178                      -0.11422                      15.12047
                      -4.22382                      -0.22858                      15.12074
                      -6.33586                      -0.34299                      15.12104
                      -8.44789                      -0.45744                      15.12127
                     -10.55991                      -0.57192                      15.12136
                     -12.67193                      -0.68641                      15.12126
                     -14.78395                      -0.80092                      15.12098
                     -16.89596                      -0.91543                      15.12050
                     -19.00796                      -1.02993                      15.11992
                     -21.11997                      -1.14440                      15.11936
                       0.04551                       0.08926                      15.12034
                       0.95733                       1.88634                      15.12119
                       1.91439                       3.77261                      15.12208
                       2.87143                       5.65889                      15.12294
                       3.82846                       7.54517                      15.12378
                       4.78547                       9.43146                      15.12457
                       5.74248                      11.31774                      15.12533
                       6.69948                      13.20403                      15.12600
                       7.65647                      15.09031                      15.12657
                       8.61345                      16.97657                      15.12689
                       9.57044                      18.86283                      15.12681
                       0.05486                      -0.08369                      15.12034
                       1.15526                      -1.77188                      15.12121
                       2.31026                      -3.54384                      15.12210
                       3.46527                      -5.31580                      15.12296
                       4.62029                      -7.08775                      15.12377
                       5.77531                      -8.85969                      15.12452
                       6.93032                     -10.63163                      15.12521
                       8.08534                     -12.40357                      15.12580
                       9.24035                     -14.17550                      15.12627
                      10.39535                     -15.94743                      15.12654
                      11.55033                     -17.71935                      15.12652
                      -0.09663                      -0.00474                     101.06318
                      -2.10879                      -0.11369                     101.06349
                      -4.22080                      -0.22810                     101.06407
                      -6.33281                      -0.34255                     101.06488
                      -8.44481                      -0.45702                     101.06590
                     -10.55680                      -0.57152                     101.06715
                     -12.66879                      -0.68603                     101.06860
                     -14.78077                      -0.80054                     101.07024
                     -16.89275                      -0.91505                     101.07201
                     -19.00472                      -1.02955                     101.07373
                     -21.11669                      -1.14403                     101.07519
                       0.04848                       0.08984                     101.06318
                       0.96025                       1.88705                     101.06316
                       1.91723                       3.77347                     101.06301
                       2.87417                       5.65991                     101.06258
                       3.83107                       7.54637                     101.06180
                       4.78795                       9.43283                     101.06062
                       5.74481                      11.31931                     101.05908
                       6.70166                      13.20578                     101.05726
                       7.65850                      15.09225                     101.05532
                       8.61533                      16.97872                     101.05361
                       9.57215                      18.86517                     101.05255
                       0.05783                      -0.08311                     101.06318
                       1.15825                      -1.77138                     101.06322
                       2.31322                      -3.54347                     101.06315
                       3.46813                      -5.31559                     101.06284
                       4.62301                      -7.08774                     101.06223
                       5.77785                      -8.85990                     101.06127
                       6.93266                     -10.63208                     101.06001
                       8.08745                     -12.40427                     101.05853
                       9.24222                     -14.17646                     101.05695
                      10.39697                     -15.94866                     101.05556
                      11.55171                     -17.72086                     101.05467
        </DataArray>
      </Points>
      <PointData>
        <DataArray type="Float32" Name="TranslationalVelocity" NumberOfComponents="3" format="ascii">
                       0.89972                       0.15548                      -0.02789
                       1.36910                     -12.43989                       0.34271
                       1.81032                     -24.17645                       0.65959
                       2.21924                     -35.06401                       0.93557
                       2.33468                     -38.16579                       1.01259
                       2.62749                     -45.10471                       1.13314
                       3.10890                     -54.28208                       1.15448
                       3.63199                     -62.59513                       1.06607
                       4.15482                     -70.04385                       0.93666
                       4.64534                     -76.62663                       0.80989
                       5.08695                     -82.34081                       0.70287
                       5.46133                     -87.18558                       0.62742
                       5.76037                     -91.15940                       0.58262
                       5.98219                     -94.26016                       0.56227
                       6.11787                     -96.48557                       0.56130
                       6.17745                     -97.83118                       0.56757
                       6.18758                     -98.29272                       0.57222
                       6.15912                     -97.86796                       0.57570
                       6.09037                     -96.55594                       0.58032
                       5.95593                     -94.35844                       0.58019
                       5.73566                     -91.27818                       0.56166
                       5.42126                     -87.31596                       0.51007
                       5.00143                     -82.47284                       0.40588
                       4.48996                     -76.75047                       0.24546
                       3.93062                     -70.15033                       0.05957
                       3.37185                     -62.67709                      -0.09913
                       2.86172                     -54.33755                      -0.15896
                       2.39793                     -45.14167                      -0.10048
                       2.06146                     -38.20149                      -0.03607
                       1.90368                     -35.10353                      -0.01731
                       1.32888                     -24.23973                       0.01336
                       0.69046                     -12.54300                       0.01082
                       0.00386                       0.00091                       0.00250
                       0.89972                       0.15548                      -0.02789
                     -10.52607                       5.92148                      -0.13060
                     -21.20375                      11.19335                      -0.40494
                     -31.06822                      16.03263                      -0.68583
                     -33.85699                      17.42306                      -0.73052
                     -40.01427                      20.65981                      -0.62162
                     -48.01246                      25.16376                      -0.13039
                     -55.16765                      29.32752                       0.40468
                     -61.57590                      32.96684                       0.73251
                     -67.28980                      36.00501                       0.79824
                     -72.30783                      38.47903                       0.69171
                     -76.60538                      40.46334                       0.51994
                     -80.15977                      42.01643                       0.34737
                     -82.95553                      43.17314                       0.20229
                     -84.98050                      43.95471                       0.09520
                     -86.21936                      44.38622                       0.02751
                     -86.65639                      44.49410                      -0.01146
                     -86.28432                      44.28794                      -0.04317
                     -85.10496                      43.76046                      -0.08995
                     -83.12917                      42.88749                      -0.16523
                     -80.36777                      41.64803                      -0.27335
                     -76.83081                      40.02386                      -0.41039
                     -72.53601                      37.97931                      -0.55057
                     -67.50716                      35.46463                      -0.63940
                     -61.76602                      32.43089                      -0.60182
                     -55.31400                      28.86616                      -0.38573
                     -48.11171                      24.84513                      -0.05383
                     -40.10538                      20.48308                       0.23859
                     -34.00771                      17.26478                       0.35093
                     -31.27122                      15.84286                       0.37319
                     -21.62622                      10.89637                       0.36250
                     -11.18539                       5.63094                       0.20753
                       0.00386                       0.00091                       0.00250
                       0.89972                       0.15548                      -0.02789
                      11.19481                       6.86601                      -0.10310
                      20.73341                      13.18912                      -0.32331
                      29.58226                      19.08558                      -0.55108
                      32.11506                      20.75547                      -0.58905
                      37.85485                      24.39759                      -0.50745
                      45.58724                      29.04781                      -0.11380
                      52.67031                      33.18646                       0.32975
                      59.00580                      36.94835                       0.61854
                      64.54173                      40.39473                       0.69939
                      69.28036                      43.50348                       0.63662
                      73.24337                      46.22429                       0.51059
                      76.44962                      48.51565                       0.37245
                      78.91337                      50.34830                       0.24927
                      80.64658                      51.69991                       0.15481
                      81.66565                      52.54472                       0.09346
                      81.98844                      52.85814                       0.05697
                      81.62237                      52.63165                       0.02644
                      80.56432                      51.87249                      -0.01773
                      78.80002                      50.60399                      -0.08589
                      76.31597                      48.84936                      -0.17791
                      73.10015                      46.62905                      -0.28437
                      69.13369                      43.97201                      -0.37866
                      64.39655                      40.90932                      -0.41850
                      58.87329                      37.46441                      -0.35531
                      52.56741                      33.63100                      -0.16596
                      45.52183                      29.34605                       0.08386
                      37.78851                      24.53667                       0.28001
                      31.97595                      20.84578                       0.35279
                      29.38223                      19.18723                       0.37130
                      20.28886                      13.32237                       0.37247
                      10.50895                       6.91940                       0.23157
                       0.00386                       0.00091                       0.00250
                       0.01599                      -0.17636                       0.00727
                       0.21066                      -3.80595                       0.01273
                       0.41532                      -7.61965                       0.02477
                       0.62029                     -11.43683                       0.03820
                       0.82555                     -15.25687                       0.04880
                       1.03108                     -19.07914                       0.05347
                       1.23685                     -22.90301                       0.05025
                       1.44283                     -26.72785                       0.03828
                       1.64900                     -30.55300                       0.01777
                       1.85519                     -34.37776                      -0.00832
                       2.06146                     -38.20149                      -0.03607
                      -0.15436                       0.08500                       0.00727
                      -3.39300                       1.72909                       0.07932
                      -6.79288                       3.45497                       0.15343
                     -10.19328                       5.18103                       0.22268
                     -13.59418                       6.90722                       0.28399
                     -16.99553                       8.63352                       0.33454
                     -20.39729                      10.35988                       0.37173
                     -23.79942                      12.08626                       0.39346
                     -27.20188                      13.81262                       0.39841
                     -30.60464                      15.53877                       0.38444
                     -34.00771                      17.26478                       0.35093
                       0.15716                       0.10185                       0.00727
                       3.20073                       2.08557                       0.07857
                       6.39646                       4.16853                       0.15156
                       9.59312                       6.25215                       0.21937
                      12.79045                       8.33632                       0.27902
                      15.98823                      10.42090                       0.32788
                      19.18624                      12.50578                       0.36367
                      22.38426                      14.59082                       0.38465
                      25.58206                      16.67591                       0.38989
                      28.77936                      18.76095                       0.37892
                      31.97595                      20.84578                       0.35279
                       0.26683                      -0.12759                       0.00908
                       0.46365                      -3.76125                       0.03888
                       0.67054                      -7.57832                       0.09349
                       0.87774                     -11.39803                       0.16939
                       1.08522                     -15.21985                       0.26424
                       1.29296                     -19.04328                       0.37558
                       1.50096                     -22.86777                       0.50030
                       1.70919                     -26.69282                       0.63415
                       1.91762                     -30.51788                       0.77115
                       2.12610                     -34.34237                       0.90148
                       2.33468                     -38.16579                       1.01259
                       0.09648                       0.13377                       0.00908
                      -3.14621                       1.78564                      -0.02247
                      -6.55242                       3.52070                      -0.06383
                      -9.96089                       5.25677                      -0.11890
                     -13.37122                       6.99365                      -0.19066
                     -16.78307                       8.73115                      -0.27910
                     -20.19616                      10.46911                      -0.38087
                     -23.61025                      12.20740                      -0.48924
                     -27.02515                      13.94591                      -0.59414
                     -30.44075                      15.68444                      -0.68052
                     -33.85699                      17.42306                      -0.73052
                       0.40800                       0.15062                       0.00908
                       3.45439                       2.13036                      -0.01274
                       6.64831                       4.20583                      -0.04283
                       9.83900                       6.27910                      -0.08498
                      13.02691                       8.35052                      -0.14185