# vtk DataFile Version 2.0
BldPointCP.BldA
ASCII
 
DATASET POLYDATA
POINTS 9 double
 -0.11458996E+002 -0.20638264E+000  0.10635572E+003
 -0.28088795E+002 -0.50612526E+000  0.94570213E+002
 -0.41354761E+002 -0.74541130E+000  0.82326974E+002
 -0.50338176E+002 -0.90767504E+000  0.70073335E+002
 -0.53242774E+002 -0.96020190E+000  0.58091889E+002
 -0.50338026E+002 -0.90787420E+000  0.46110488E+002
 -0.41354554E+002 -0.74577455E+000  0.33856847E+002
 -0.28088804E+002 -0.50632899E+000  0.21613485E+002
 -0.11459471E+002 -0.20651776E+000  0.98275662E+001
  
POINT_DATA 9
SCALARS Gamma_LL double
LOOKUP_TABLE default
 -0.00000000E+000
 -0.00000000E+000
 -0.00000000E+000
 -0.00000000E+000
 -0.00000000E+000
 -0.00000000E+000
 -0.00000000E+000
 -0.00000000E+000
 -0.00000000E+000
VECTORS Vind_CP double
  0.00000000E+000  0.00000000E+000  0.00000000E+000
  0.00000000E+000  0.00000000E+000  0.00000000E+000
  0.00000000E+000  0.00000000E+000  0.00000000E+000
  0.00000000E+000  0.00000000E+000  0.00000000E+000
  0.00000000E+000  0.00000000E+000  0.00000000E+000
  0.00000000E+000  0.00000000E+000  0.00000000E+000
  0.00000000E+000  0.00000000E+000  0.00000000E+000
  0.00000000E+000  0.00000000E+000  0.00000000E+000
  0.00000000E+000  0.00000000E+000  0.00000000E+000
VECTORS Vtot_CP double
  0.16735418E+002  0.20642387E+002 -0.83422388E-001
  0.16249160E+002  0.50699323E+002 -0.16950972E+000
  0.15758323E+002  0.74690470E+002 -0.13659636E+000
  0.15376946E+002  0.90894691E+002 -0.85909549E-001
  0.15238564E+002  0.96133197E+002 -0.87057792E-001
  0.15345671E+002  0.90919665E+002 -0.96774772E-001
  0.15726681E+002  0.74739277E+002 -0.43323114E-001
  0.16261715E+002  0.50731100E+002  0.13344550E-001
  0.16830543E+002  0.20657412E+002  0.76964786E-002
VECTORS Vstr_CP double
  0.46458150E+000 -0.20642387E+002  0.83422388E-001
  0.95083994E+000 -0.50699323E+002  0.16950972E+000
  0.14416766E+001 -0.74690470E+002  0.13659636E+000
  0.18230541E+001 -0.90894691E+002  0.85909549E-001
  0.19614361E+001 -0.96133197E+002  0.87057792E-001
  0.18543286E+001 -0.90919665E+002  0.96774772E-001
  0.14733193E+001 -0.74739277E+002  0.43323114E-001
  0.93828532E+000 -0.50731100E+002 -0.13344550E-001
  0.36945733E+000 -0.20657412E+002 -0.76964786E-002
VECTORS Vwnd_CP double
  0.17200000E+002 -0.00000000E+000  0.00000000E+000
  0.17200000E+002 -0.00000000E+000  0.00000000E+000
  0.17200000E+002 -0.00000000E+000  0.00000000E+000
  0.17200000E+002 -0.00000000E+000  0.00000000E+000
  0.17200000E+002 -0.00000000E+000  0.00000000E+000
  0.17200000E+002 -0.00000000E+000  0.00000000E+000
  0.17200000E+002 -0.00000000E+000  0.00000000E+000
  0.17200000E+002 -0.00000000E+000  0.00000000E+000
  0.17200000E+002 -0.00000000E+000  0.00000000E+000
VECTORS Tangent double
 -0.72659050E+000  0.68707077E+000  0.22650247E-004
 -0.18279618E-001  0.99983291E+000  0.10834820E-003
 -0.18378431E-001  0.99983109E+000  0.15256430E-003
 -0.18256842E-001  0.99983333E+000  0.77308663E-004
 -0.18163344E-001  0.99983503E+000 -0.33749958E-004
 -0.18034523E-001  0.99983735E+000 -0.15170806E-003
 -0.17945441E-001  0.99983896E+000 -0.97425969E-004
 -0.17973714E-001  0.99983846E+000 -0.10375487E-004
 -0.18009583E-001  0.99983781E+000 -0.14542533E-005
VECTORS Normal double
 -0.44523631E+000 -0.47087104E+000  0.76160691E+000
 -0.64518390E+000 -0.11878471E-001  0.76393497E+000
 -0.71002238E+000 -0.13158734E-001  0.70405616E+000
 -0.89580178E+000 -0.16391580E-001  0.44415142E+000
 -0.99983503E+000 -0.18163344E-001 -0.48352864E-005
 -0.89579811E+000 -0.16225314E-001 -0.44416493E+000
 -0.71003430E+000 -0.12812535E-001 -0.70405052E+000
 -0.64520217E+000 -0.11606480E-001 -0.76392372E+000
 -0.51169555E+000 -0.92181679E-002 -0.85911739E+000
VECTORS Orth double
 -0.52328852E+000 -0.55336626E+000 -0.64803928E+000
 -0.76380861E+000 -0.13894535E-001 -0.64529323E+000
 -0.70393924E+000 -0.12831124E-001 -0.71014428E+000
 -0.44407866E+000 -0.80395489E-002 -0.89595173E+000
  0.54475009E-005 -0.33656565E-004 -0.10000000E+001
  0.44409515E+000  0.78744028E-002 -0.89594502E+000
  0.70393839E+000  0.12565321E-001 -0.71014988E+000
  0.76380044E+000  0.13723852E-001 -0.64530655E+000
  0.85897807E+000  0.15471602E-001 -0.51177858E+000
