<?xml version="1.0"?>
<VTKFile type="PolyData" version="0.1" byte_order="LittleEndian">
  <PolyData>
    <Piece NumberOfPoints="     10" NumberOfVerts="  0" NumberOfLines="      9"
           NumberOfStrips="  0" NumberOfPolys="      0">
      <Points>
        <DataArray type="Float32" NumberOfComponents="3" format="ascii">
                       0.13576                       0.11261                     101.06359
                       0.71953                       2.37800                     101.04046
                       1.30388                       4.64326                     101.01655
                       1.88860                       6.90840                     100.99213
                       2.47362                       9.17347                     100.96802
                       3.06325                      11.43817                     100.96393
                       3.64866                      13.70312                     100.94313
                       4.23639                      15.96746                     100.92133
                       4.82036                      18.23283                     100.91117
                       5.40416                      20.49823                     100.90539
        </DataArray>
      </Points>
      <PointData>
        <DataArray type="Float32" Name="TranslationalVelocity" NumberOfComponents="3" format="ascii">
                       1.35215                       0.21677                      -0.00050
                      -2.75434                       1.27432                      -0.17490
                      -6.85049                       2.33024                      -0.35456
                     -10.93825                       3.38469                      -0.53237
                     -15.01940                       4.43813                      -0.70171
                     -19.08917                       5.49956                      -0.85625
                     -23.16217                       6.55199                      -0.98959
                     -27.23364                       7.60863                      -1.09956
                     -31.30702                       8.65916                      -1.18338
                     -35.38314                       9.71026                      -1.24079
        </DataArray>
        <DataArray type="Float32" Name="RotationalVelocity" NumberOfComponents="3" format="ascii">
                      -0.06727                       0.02863                       1.81609
                      -0.06783                       0.04037                       1.81184
                      -0.06593                       0.05208                       1.80803
                      -0.06159                       0.06317                       1.80487
                      -0.05500                       0.07369                       1.80237
                      -0.03614                       0.09322                       1.79935
                      -0.02453                       0.10240                       1.79883
                      -0.01198                       0.11129                       1.79898
                       0.00080                       0.11997                       1.79978
                       0.01368                       0.12856                       1.80122
        </DataArray>
        <DataArray type="Float32" Name="TranslationalAcceleration" NumberOfComponents="3" format="ascii">
                      10.29461                      -5.15001                      -0.07221
                       9.87481                      -6.15210                       1.22469
                       9.53922                      -6.82777                       2.53660
                       9.20980                      -7.49656                       3.73615
                       8.88351                      -8.15670                       4.79276
                      10.12398                      -2.09869                       6.18456
                       9.79641                      -2.72902                       6.74686
                       9.46146                      -3.33754                       6.81790
                       9.14399                      -3.98157                       6.60139
                       8.82910                      -4.62380                       6.34338
        </DataArray>
        <DataArray type="Float32" Name="OrientationX" NumberOfComponents="3" format="ascii">
                       0.00109                       0.01366                       0.99991
                       0.00133                       0.01567                       0.99988
                       0.00148                       0.01709                       0.99985
                       0.00155                       0.01795                       0.99984
                       0.00153                       0.01824                       0.99983
                       0.00123                       0.01705                       0.99985
                       0.00094                       0.01554                       0.99988
                      -0.00023                       0.00405                       0.99999
                       0.00026                       0.00507                       0.99999
                       0.00064                      -0.00694                       0.99998
        </DataArray>
        <DataArray type="Float32" Name="OrientationY" NumberOfComponents="3" format="ascii">
                       0.96866                      -0.24838                       0.00233
                       0.96866                      -0.24838                       0.00260
                       0.96866                      -0.24837                       0.00281
                       0.96866                      -0.24837                       0.00296
                       0.96866                      -0.24838                       0.00305
                       0.96866                      -0.24837                       0.00304
                       0.96866                      -0.24836                       0.00295
                       0.97001                      -0.24306                       0.00120
                       0.96996                      -0.24325                       0.00098
                       0.96250                      -0.27126                      -0.00250
        </DataArray>
        <DataArray type="Float32" Name="OrientationZ" NumberOfComponents="3" format="ascii">
                       0.24839                       0.96857                      -0.01350
                       0.24839                       0.96854                      -0.01551
                       0.24839                       0.96851                      -0.01693
                       0.24839                       0.96850                      -0.01777
                       0.24839                       0.96849                      -0.01805
                       0.24839                       0.96852                      -0.01682
                       0.24837                       0.96854                      -0.01528
                       0.24306                       0.97000                      -0.00387
                       0.24326                       0.96995                      -0.00498
                       0.27127                       0.96248                       0.00650
        </DataArray>
      </PointData>
      <Lines>
        <DataArray type="Int32" Name="connectivity" format="ascii">
      0      1
      1      2
      2      3
      3      4
      4      5
      5      6
      6      7
      7      8
      8      9
        </DataArray>
        <DataArray type="Int32" Name="offsets" format="ascii">
      2
      4
      6
      8
     10
     12
     14
     16
     18
        </DataArray>
      </Lines>
    </Piece>
  </PolyData>
</VTKFile>
