<?xml version="1.0"?>
<VTKFile type="PolyData" version="0.1" byte_order="LittleEndian">
  <PolyData>
    <Piece NumberOfPoints="     10" NumberOfVerts="  0" NumberOfLines="      9"
           NumberOfStrips="  0" NumberOfPolys="      0">
      <Points>
        <DataArray type="Float32" NumberOfComponents="3" format="ascii">
                       0.06576                      -0.07500                      15.12065
                       1.61138                      -1.83060                      15.12719
                       3.15763                      -3.58566                      15.13367
                       4.70434                      -5.34031                      15.13940
                       6.25154                      -7.09451                      15.14402
                       7.79562                      -8.85152                      15.15067
                       9.34298                     -10.60555                      15.15136
                      10.89039                     -12.35953                      15.15059
                      12.43771                     -14.11356                      15.14828
                      13.98483                     -15.86773                      15.14444
        </DataArray>
      </Points>
      <PointData>
        <DataArray type="Float32" Name="TranslationalVelocity" NumberOfComponents="3" format="ascii">
                       0.12579                       0.11623                       0.00165
                       3.29605                       2.90708                       0.05091
                       6.46966                       5.70286                       0.09685
                       9.64620                       8.50270                       0.13610
                      12.82501                      11.30611                       0.16573
                      16.01250                      14.10672                       0.18266
                      19.19527                      16.91419                       0.18497
                      22.37898                      19.72271                       0.17213
                      25.56317                      22.53152                       0.14343
                      28.74739                      25.33988                       0.09857
        </DataArray>
        <DataArray type="Float32" Name="RotationalVelocity" NumberOfComponents="3" format="ascii">
                      -0.02321                      -0.00571                       1.80393
                      -0.02266                      -0.00560                       1.80623
                      -0.02114                      -0.00466                       1.80835
                      -0.01873                      -0.00297                       1.81017
                      -0.01557                      -0.00061                       1.81169
                      -0.00750                       0.00561                       1.81385
                      -0.00290                       0.00923                       1.81447
                       0.00187                       0.01299                       1.81480
                       0.00682                       0.01699                       1.81483
                       0.01165                       0.02089                       1.81457
        </DataArray>
        <DataArray type="Float32" Name="TranslationalAcceleration" NumberOfComponents="3" format="ascii">
                       0.05431                      -0.02764                       0.06335
                      -0.55812                       0.74677                      -0.69095
                      -0.93481                       1.29463                      -1.42029
                      -1.29809                       1.85666                      -2.01185
                      -1.65160                       2.42782                      -2.43093
                       2.76703                      -2.17523                      -2.80371
                       2.43978                      -1.59625                      -2.85378
                       2.11765                      -1.01426                      -2.74208
                       1.78661                      -0.42065                      -2.54830
                       1.45766                       0.18173                      -2.39289
        </DataArray>
        <DataArray type="Float32" Name="OrientationX" NumberOfComponents="3" format="ascii">
                      -0.00002                       0.00010                       1.00000
                       0.00009                      -0.00004                       1.00000
                       0.00021                      -0.00019                       1.00000
                       0.00035                      -0.00033                       1.00000
                       0.00050                      -0.00050                       1.00000
                       0.00009                       0.00016                       1.00000
                       0.00012                       0.00035                       1.00000
                       0.00020                       0.00047                       1.00000
                       0.00032                       0.00050                       1.00000
                       0.00002                       0.00002                       1.00000
        </DataArray>
        <DataArray type="Float32" Name="OrientationY" NumberOfComponents="3" format="ascii">
                      -0.75164                      -0.65957                       0.00005
                      -0.75115                      -0.66013                       0.00004
                      -0.75064                      -0.66071                       0.00004
                      -0.75012                      -0.66130                       0.00004
                      -0.74954                      -0.66196                       0.00005
                      -0.74821                      -0.66347                       0.00018
                      -0.74828                      -0.66339                       0.00032
                      -0.74846                      -0.66318                       0.00046
                      -0.74875                      -0.66286                       0.00057
                      -0.74844                      -0.66320                       0.00003
        </DataArray>
        <DataArray type="Float32" Name="OrientationZ" NumberOfComponents="3" format="ascii">
                       0.65957                      -0.75164                       0.00009
                       0.66013                      -0.75115                      -0.00009
                       0.66071                      -0.75064                      -0.00028
                       0.66130                      -0.75012                      -0.00048
                       0.66196                      -0.74954                      -0.00071
                       0.66347                      -0.74821                       0.00006
                       0.66339                      -0.74828                       0.00018
                       0.66318                      -0.74846                       0.00022
                       0.66286                      -0.74875                       0.00017
                       0.66320                      -0.74844                       0.00000
        </DataArray>
      </PointData>
      <Lines>
        <DataArray type="Int32" Name="connectivity" format="ascii">
      0      1
      1      2
      2      3
      3      4
      4      5
      5      6
      6      7
      7      8
      8      9
        </DataArray>
        <DataArray type="Int32" Name="offsets" format="ascii">
      2
      4
      6
      8
     10
     12
     14
     16
     18
        </DataArray>
      </Lines>
    </Piece>
  </PolyData>
</VTKFile>
