# vtk DataFile Version 2.0

ASCII
 
DATASET POLYDATA
POINTS 180 double
  0.31622711E+000  0.69600560E-001  0.11318073E+003
 -0.19558629E+002 -0.58790870E+001  0.10128218E+003
 -0.33541276E+002 -0.10131948E+002  0.89162475E+002
 -0.44920469E+002 -0.13696336E+002  0.76751646E+002
 -0.50613966E+002 -0.15507191E+002  0.64467747E+002
 -0.50627183E+002 -0.15530016E+002  0.52219518E+002
 -0.44911655E+002 -0.13728829E+002  0.39947989E+002
 -0.33527185E+002 -0.10112475E+002  0.27519764E+002
 -0.19688594E+002 -0.58971905E+001  0.15241717E+002
  0.16091521E-003  0.30462559E-004  0.30001936E+001
 -0.39953565E+001 -0.12166693E+001  0.11310486E+003
 -0.20841815E+002 -0.16575517E+001  0.10127685E+003
 -0.34457519E+002 -0.71737232E+001  0.89161249E+002
 -0.45607603E+002 -0.11339017E+002  0.76736821E+002
 -0.51215594E+002 -0.13333140E+002  0.64459131E+002
 -0.51243280E+002 -0.13314464E+002  0.52228485E+002
 -0.45612602E+002 -0.11224797E+002  0.39951701E+002
 -0.34476051E+002 -0.68208996E+001  0.27526589E+002
 -0.20950800E+002 -0.15778359E+001  0.15245229E+002
 -0.12773463E+001  0.43148833E+001  0.30046708E+001
 -0.38787455E+001 -0.11493668E+001  0.11311420E+003
 -0.20724745E+002 -0.12704696E+001  0.10127344E+003
 -0.34431849E+002 -0.65289678E+001  0.89131771E+002
 -0.45681572E+002 -0.10482614E+002  0.76714886E+002
 -0.51343572E+002 -0.12368252E+002  0.64434520E+002
 -0.51367947E+002 -0.12347460E+002  0.52196624E+002
 -0.45686900E+002 -0.10369311E+002  0.39917805E+002
 -0.34449075E+002 -0.61838710E+001  0.27501876E+002
 -0.20820989E+002 -0.11915154E+001  0.15233385E+002
 -0.10306234E+001  0.43372922E+001  0.30040972E+001
 -0.37600864E+001 -0.10811912E+001  0.11313609E+003
 -0.20597850E+002 -0.88371160E+000  0.10127007E+003
 -0.34393464E+002 -0.58826062E+001  0.89103090E+002
 -0.45738511E+002 -0.96230277E+001  0.76694378E+002
 -0.51455333E+002 -0.11398896E+002  0.64411123E+002
 -0.51478512E+002 -0.11375944E+002  0.52164849E+002
 -0.45745532E+002 -0.95097106E+001  0.39884067E+002
 -0.34409983E+002 -0.55441483E+001  0.27478116E+002
 -0.20682389E+002 -0.80527873E+000  0.15221316E+002
 -0.78363256E+000  0.43576001E+001  0.30039215E+001
 -0.36387996E+001 -0.10122035E+001  0.11313763E+003
 -0.20459173E+002 -0.49821449E+000  0.10126921E+003
 -0.34341642E+002 -0.52351456E+001  0.89074698E+002
 -0.45782236E+002 -0.87605037E+001  0.76677112E+002
 -0.51551682E+002 -0.10425599E+002  0.64390211E+002
 -0.51570551E+002 -0.10400259E+002  0.52134871E+002
 -0.45789104E+002 -0.86464341E+001  0.39850271E+002
 -0.34357816E+002 -0.49021917E+001  0.27455808E+002
 -0.20533646E+002 -0.41898640E+000  0.15217989E+002
 -0.53528207E+000  0.43763344E+001  0.30080880E+001
 -0.35149360E+001 -0.94229912E+000  0.11311973E+003
 -0.20311198E+002 -0.11344095E+000  0.10125480E+003
 -0.34275406E+002 -0.45871741E+001  0.89045260E+002
 -0.45812321E+002 -0.78953309E+001  0.76663082E+002
 -0.51634072E+002 -0.94488164E+001  0.64372064E+002
 -0.51649012E+002 -0.94212194E+001  0.52104959E+002
 -0.45818510E+002 -0.77798775E+001  0.39815885E+002
 -0.34291518E+002 -0.42584940E+001  0.27436375E+002
 -0.20375833E+002 -0.33283110E-001  0.15214279E+002
 -0.28680452E+000  0.43934056E+001  0.30122689E+001
 -0.33886074E+001 -0.87160886E+000  0.11312094E+003
 -0.20152281E+002  0.26980939E+000  0.10124984E+003
 -0.34198551E+002 -0.39397859E+001  0.89019666E+002
 -0.45824425E+002 -0.70281208E+001  0.76650163E+002
 -0.51696711E+002 -0.84690881E+001  0.64355094E+002
 -0.51708964E+002 -0.84392543E+001  0.52076163E+002
 -0.45829812E+002 -0.69107433E+001  0.39783033E+002
 -0.34216769E+002 -0.36146949E+001  0.27413662E+002
 -0.20208527E+002  0.35117348E+000  0.15209695E+002
 -0.38287037E-001  0.44086077E+001  0.30205664E+001
 -0.32594240E+001 -0.80042101E+000  0.11312172E+003
 -0.19985050E+002  0.65263860E+000  0.10123356E+003
 -0.34105280E+002 -0.32928196E+001  0.88991998E+002
 -0.45815259E+002 -0.61595918E+001  0.76636558E+002
 -0.51737363E+002 -0.74869277E+001  0.64339795E+002
 -0.51747268E+002 -0.74549405E+001  0.52048805E+002
 -0.45819523E+002 -0.60398145E+001  0.39754112E+002
 -0.34121385E+002 -0.29699012E+001  0.27400312E+002
 -0.20032148E+002  0.73468003E+000  0.15208034E+002
  0.21025403E+000  0.44221970E+001  0.30292941E+001
 -0.31272720E+001 -0.72827765E+000  0.11312214E+003
 -0.19807459E+002  0.10334251E+001  0.10121717E+003
 -0.33993705E+002 -0.26472200E+001  0.88960758E+002
 -0.45784288E+002 -0.52918015E+001  0.76624718E+002
 -0.51746031E+002 -0.65036025E+001  0.64323440E+002
 -0.51760093E+002 -0.64697357E+001  0.52024496E+002
 -0.45784330E+002 -0.51680633E+001  0.39730710E+002
 -0.34008604E+002 -0.23251755E+001  0.27392059E+002
 -0.19846856E+002  0.11170958E+001  0.15206716E+002
  0.45888541E+000  0.44338963E+001  0.30352027E+001
 -0.29916992E+001 -0.65497343E+000  0.11311404E+003
 -0.19618831E+002  0.14121066E+001  0.10119879E+003
 -0.33864731E+002 -0.20031769E+001  0.88927248E+002
 -0.45728141E+002 -0.44240315E+001  0.76610106E+002
 -0.51723098E+002 -0.55206225E+001  0.64307094E+002
 -0.51731669E+002 -0.54841494E+001  0.52004596E+002
 -0.45732031E+002 -0.42976611E+001  0.39704507E+002
 -0.33874519E+002 -0.16808305E+001  0.27393737E+002
 -0.19652228E+002  0.14979350E+001  0.15207576E+002
  0.70779878E+000  0.44440718E+001  0.30395172E+001
 -0.28528844E+001 -0.57966122E+000  0.11311373E+003
 -0.19422573E+002  0.17890725E+001  0.10115734E+003
 -0.33717884E+002 -0.13612822E+001  0.88891592E+002
 -0.45646372E+002 -0.35580750E+001  0.76592598E+002
 -0.51654071E+002 -0.45392663E+001  0.64288806E+002
 -0.51661970E+002 -0.45007982E+001  0.51990544E+002
 -0.45647768E+002 -0.34282979E+001  0.39690652E+002
 -0.33721921E+002 -0.10383793E+001  0.27400618E+002
 -0.19452527E+002  0.18767656E+001  0.15204549E+002
  0.95716717E+000  0.44529111E+001  0.30441822E+001
 -0.27102733E+001 -0.50319125E+000  0.11311591E+003
 -0.19235197E+002  0.21658220E+001  0.10113066E+003
 -0.33549551E+002 -0.72176462E+000  0.88849647E+002
 -0.45535594E+002 -0.26942383E+001  0.76570228E+002
 -0.51549586E+002 -0.35618640E+001  0.64271515E+002
 -0.51556343E+002 -0.35215567E+001  0.51979737E+002
 -0.45535189E+002 -0.25610571E+001  0.39685161E+002
 -0.33553046E+002 -0.39775470E+000  0.27413393E+002
 -0.19251251E+002  0.22542807E+001  0.15192287E+002
  0.12071119E+001  0.44603909E+001  0.30486179E+001
 -0.25635778E+001 -0.42561407E+000  0.11311701E+003
 -0.19020541E+002  0.25398107E+001  0.10106907E+003
 -0.33365705E+002 -0.84920308E-001  0.88807894E+002
 -0.45397124E+002 -0.18332975E+001  0.76544517E+002
 -0.51407338E+002 -0.25893387E+001  0.64253086E+002
 -0.51416417E+002 -0.25474197E+001  0.51974597E+002
 -0.45389747E+002 -0.16968181E+001  0.39692636E+002
 -0.33368324E+002  0.24057254E+000  0.27429780E+002
 -0.19030497E+002  0.26312137E+001  0.15201566E+002
  0.14576886E+001  0.44665553E+001  0.30526814E+001
 -0.24125710E+001 -0.34699326E+000  0.11311834E+003
 -0.18796346E+002  0.29124369E+001  0.10102260E+003
 -0.33167996E+002  0.54952733E+000  0.88768924E+002
 -0.45228291E+002 -0.97575956E+000  0.76511276E+002
 -0.51241287E+002 -0.16217786E+001  0.64235216E+002
 -0.51245486E+002 -0.15785210E+001  0.51974252E+002
 -0.45221459E+002 -0.83618948E+000  0.39705711E+002
 -0.33169575E+002  0.87658406E+000  0.27449148E+002
 -0.18802374E+002  0.30063491E+001  0.15210924E+002
  0.17091784E+001  0.44722224E+001  0.30553174E+001
 -0.22570616E+001 -0.26747490E+000  0.11311946E+003
 -0.18565497E+002  0.32846639E+001  0.10097629E+003
 -0.32957863E+002  0.11816571E+001  0.88733071E+002
 -0.45040557E+002 -0.12137608E+000  0.76479638E+002
 -0.51051997E+002 -0.65795129E+000  0.64219087E+002
 -0.51054924E+002 -0.61380679E+000  0.51976870E+002
 -0.45034816E+002  0.20872594E-001  0.39721694E+002
 -0.32958431E+002  0.15102846E+001  0.27469555E+002
 -0.18567861E+002  0.33802765E+001  0.15217989E+002
  0.19608327E+001  0.44764603E+001  0.30585858E+001
 -0.20967840E+001 -0.18730053E+000  0.11311964E+003
 -0.18325421E+002  0.36553960E+001  0.10093965E+003
 -0.32735815E+002  0.18115156E+001  0.88702489E+002
 -0.44833211E+002  0.72971400E+000  0.76450711E+002
 -0.50850813E+002  0.30312692E+000  0.64206868E+002
 -0.50852686E+002  0.34764542E+000  0.51980901E+002
 -0.44829769E+002  0.87427943E+000  0.39740182E+002
 -0.32736284E+002  0.21416007E+001  0.27489109E+002
 -0.18325737E+002  0.37518653E+001  0.15220655E+002
  0.22126077E+001  0.44794098E+001  0.30622194E+001
 -0.19314351E+001 -0.10665413E+000  0.11311873E+003
 -0.18080610E+002  0.40248254E+001  0.10089299E+003
 -0.32506630E+002  0.24396564E+001  0.88680951E+002
 -0.44613865E+002  0.15780376E+001  0.76428663E+002
 -0.50632828E+002  0.12611907E+001  0.64196934E+002
 -0.50634480E+002  0.13057033E+001  0.51987383E+002
 -0.44612319E+002  0.17241587E+001  0.39757169E+002
 -0.32520874E+002  0.27728653E+001  0.27489168E+002
 -0.18077565E+002  0.41219049E+001  0.15232723E+002
  0.24643289E+001  0.44813199E+001  0.30645301E+001
 -0.17619481E+001 -0.25955981E-001  0.11311727E+003
 -0.17828355E+002  0.43935963E+001  0.10086376E+003
 -0.32286080E+002  0.30695452E+001  0.88683663E+002
 -0.44385191E+002  0.24247624E+001  0.76412998E+002
 -0.50410435E+002  0.22180304E+001  0.64191512E+002
 -0.50410915E+002  0.22623184E+001  0.51992178E+002
 -0.44383471E+002  0.25714036E+001  0.39770931E+002
 -0.32287345E+002  0.34013107E+001  0.27494326E+002
 -0.17822605E+002  0.44902835E+001  0.15239372E+002
  0.27158994E+001  0.44818463E+001  0.30671414E+001
  
POLYGONS 153 765
      4      0      1     11     10
      4      1      2     12     11
      4      2      3     13     12
      4      3      4     14     13
      4      4      5     15     14
      4      5      6     16     15
      4      6      7     17     16
      4      7      8     18     17
      4      8      9     19     18
      4     10     11     21     20
      4     11     12     22     21
      4     12     13     23     22
      4     13     14     24     23
      4     14     15     25     24
      4     15     16     26     25
      4     16     17     27     26
      4     17     18     28     27
      4     18     19     29     28
      4     20     21     31     30
      4     21     22     32     31
      4     22     23     33     32
      4     23     24     34     33
      4     24     25     35     34
      4     25     26     36     35
      4     26     27     37     36
      4     27     28     38     37
      4     28     29     39     38
      4     30     31     41     40
      4     31     32     42     41
      4     32     33     43     42
      4     33     34     44     43
      4     34     35     45     44
      4     35     36     46     45
      4     36     37     47     46
      4     37     38     48     47
      4     38     39     49     48
      4     40     41     51     50
      4     41     42     52     51
      4     42     43     53     52
      4     43     44     54     53
      4     44     45     55     54
      4     45     46     56     55
      4     46     47     57     56
      4     47     48     58     57
      4     48     49     59     58
      4     50     51     61     60
      4     51     52     62     61
      4     52     53     63     62
      4     53     54     64     63
      4     54     55     65     64
      4     55     56     66     65
      4     56     57     67     66
      4     57     58     68     67
      4     58     59     69     68
      4     60     61     71     70
      4     61     62     72     71
      4     62     63     73     72
      4     63     64     74     73
      4     64     65     75     74
      4     65     66     76     75
      4     66     67     77     76
      4     67     68     78     77
      4     68     69     79     78
      4     70     71     81     80
      4     71     72     82     81
      4     72     73     83     82
      4     73     74     84     83
      4     74     75     85     84
      4     75     76     86     85
      4     76     77     87     86
      4     77     78     88     87
      4     78     79     89     88
      4     80     81     91     90
      4     81     82     92     91
      4     82     83     93     92
      4     83     84     94     93
      4     84     85     95     94
      4     85     86     96     95
      4     86     87     97     96
      4     87     88     98     97
      4     88     89     99     98
      4     90     91    101    100
      4     91     92    102    101
      4     92     93    103    102
      4     93     94    104    103
      4     94     95    105    104
      4     95     96    106    105
      4     96     97    107    106
      4     97     98    108    107
      4     98     99    109    108
      4    100    101    111    110
      4    101    102    112    111
      4    102    103    113    112
      4    103    104    114    113
      4    104    105    115    114
      4    105    106    116    115
      4    106    107    117    116
      4    107    108    118    117
      4    108    109    119    118
      4    110    111    121    120
      4    111    112    122    121
      4    112    113    123    122
      4    113    114    124    123
      4    114    115    125    124
      4    115    116    126    125
      4    116    117    127    126
      4    117    118    128    127
      4    118    119    129    128
      4    120    121    131    130
      4    121    122    132    131
      4    122    123    133    132
      4    123    124    134    133
      4    124    125    135    134
      4    125    126    136    135
      4    126    127    137    136
      4    127    128    138    137
      4    128    129    139    138
      4    130    131    141    140
      4    131    132    142    141
      4    132    133    143    142
      4    133    134    144    143
      4    134    135    145    144
      4    135    136    146    145
      4    136    137    147    146
      4    137    138    148    147
      4    138    139    149    148
      4    140    141    151    150
      4    141    142    152    151
      4    142    143    153    152
      4    143    144    154    153
      4    144    145    155    154
      4    145    146    156    155
      4    146    147    157    156
      4    147    148    158    157
      4    148    149    159    158
      4    150    151    161    160
      4    151    152    162    161
      4    152    153    163    162
      4    153    154    164    163
      4    154    155    165    164
      4    155    156    166    165
      4    156    157    167    166
      4    157    158    168    167
      4    158    159    169    168
      4    160    161    171    170
      4    161    162    172    171
      4    162    163    173    172
      4    163    164    174    173
      4    164    165    175    174
      4    165    166    176    175
      4    166    167    177    176
      4    167    168    178    177
      4    168    169    179    178
  
CELL_DATA 153
SCALARS Gamma double
LOOKUP_TABLE default
 -0.43611406E+001
 -0.15822917E+003
 -0.14354461E+003
 -0.11008348E+003
 -0.90603113E+002
 -0.82493351E+002
 -0.98867509E+002
 -0.13870013E+003
 -0.60763481E+002
 -0.43611406E+001
 -0.15822917E+003
 -0.14354461E+003
 -0.11008348E+003
 -0.90603113E+002
 -0.82493351E+002
 -0.98867509E+002
 -0.13870013E+003
 -0.60763481E+002
 -0.44759924E+001
 -0.15906434E+003
 -0.14393031E+003
 -0.11214943E+003
 -0.95053052E+002
 -0.87378484E+002
 -0.10317547E+003
 -0.14113658E+003
 -0.62870055E+002
 -0.45978567E+001
 -0.15980132E+003
 -0.14411729E+003
 -0.11440126E+003
 -0.99974593E+002
 -0.92543669E+002
 -0.10746903E+003
 -0.14353039E+003
 -0.65020927E+002
 -0.47285441E+001
 -0.16045162E+003
 -0.14419142E+003
 -0.11671544E+003
 -0.10500911E+003
 -0.97698906E+002
 -0.11170522E+003
 -0.14576098E+003
 -0.67200707E+002
 -0.48659957E+001
 -0.16100426E+003
 -0.14412127E+003
 -0.11908272E+003
 -0.11019902E+003
 -0.10289716E+003
 -0.11562099E+003
 -0.14786472E+003
 -0.69415513E+002
 -0.50095155E+001
 -0.16144714E+003
 -0.14392381E+003
 -0.12148782E+003
 -0.11515820E+003
 -0.10810995E+003
 -0.11885418E+003
 -0.14990370E+003
 -0.71660577E+002
 -0.51494908E+001
 -0.16153997E+003
 -0.14340084E+003
 -0.12383816E+003
 -0.11906972E+003
 -0.11311480E+003
 -0.12183001E+003
 -0.15165461E+003
 -0.73803696E+002
 -0.51346537E+001
 -0.15665929E+003
 -0.13846815E+003
 -0.12263195E+003
 -0.11920674E+003
 -0.11390880E+003
 -0.12094731E+003
 -0.14870566E+003
 -0.73654135E+002
 -0.46587266E+001
 -0.13835549E+003
 -0.12171970E+003
 -0.11050393E+003
 -0.10856606E+003
 -0.10380919E+003
 -0.10921629E+003
 -0.13273300E+003
 -0.66919081E+002
 -0.38266154E+001
 -0.11048758E+003
 -0.96801330E+002
 -0.90032760E+002
 -0.89688879E+002
 -0.85493586E+002
 -0.89374969E+002
 -0.10715760E+003
 -0.54436325E+002
 -0.28342566E+001
 -0.79388323E+002
 -0.69385444E+002
 -0.66057483E+002
 -0.66650169E+002
 -0.63428619E+002
 -0.65857825E+002
 -0.77955958E+002
 -0.39714610E+002
 -0.17915563E+001
 -0.48619196E+002
 -0.42402214E+002
 -0.41280658E+002
 -0.42145739E+002
 -0.40220134E+002
 -0.41313394E+002
 -0.48317845E+002
 -0.24714688E+002
 -0.81856091E+000
 -0.21541708E+002
 -0.18744617E+002
 -0.18631326E+002
 -0.19216129E+002
 -0.18418026E+002
 -0.18723285E+002
 -0.21655029E+002
 -0.11135103E+002
 -0.16983547E+000
 -0.43158211E+001
 -0.37588562E+001
 -0.38076947E+001
 -0.39630860E+001
 -0.38217750E+001
 -0.38456670E+001
 -0.43977668E+001
 -0.22764939E+001
 -0.20358333E-002
 -0.50129804E-001
 -0.43769850E-001
 -0.45116199E-001
 -0.47341231E-001
 -0.45934438E-001
 -0.45782683E-001
 -0.51804677E-001
 -0.27059359E-001
 -0.00000000E+000
 -0.00000000E+000
 -0.00000000E+000
 -0.00000000E+000
 -0.00000000E+000
 -0.00000000E+000
 -0.00000000E+000
 -0.00000000E+000
 -0.00000000E+000
POINT_DATA 180
VECTORS Uconv double
  0.00000000E+000  0.00000000E+000  0.00000000E+000
  0.00000000E+000  0.00000000E+000  0.00000000E+000
  0.00000000E+000  0.00000000E+000  0.00000000E+000
  0.00000000E+000  0.00000000E+000  0.00000000E+000
  0.00000000E+000  0.00000000E+000  0.00000000E+000
  0.00000000E+000  0.00000000E+000  0.00000000E+000
  0.00000000E+000  0.00000000E+000  0.00000000E+000
  0.00000000E+000  0.00000000E+000  0.00000000E+000
  0.00000000E+000  0.00000000E+000  0.00000000E+000
  0.00000000E+000  0.00000000E+000  0.00000000E+000
  0.00000000E+000  0.00000000E+000  0.00000000E+000
  0.00000000E+000  0.00000000E+000  0.00000000E+000
  0.00000000E+000  0.00000000E+000  0.00000000E+000
  0.00000000E+000  0.00000000E+000  0.00000000E+000
  0.00000000E+000  0.00000000E+000  0.00000000E+000
  0.00000000E+000  0.00000000E+000  0.00000000E+000
  0.00000000E+000  0.00000000E+000  0.00000000E+000
  0.00000000E+000  0.00000000E+000  0.00000000E+000
  0.00000000E+000  0.00000000E+000  0.00000000E+000
  0.00000000E+000  0.00000000E+000  0.00000000E+000
  0.17148014E+002 -0.27175157E+000  0.21799773E+000
  0.15982012E+002  0.46389190E+000  0.27026345E+001
  0.15228034E+002  0.25102308E+000  0.18680397E+001
  0.15262557E+002  0.29872898E-001  0.11545414E+001
  0.15448616E+002 -0.49610084E-002  0.37537080E+000
  0.15660610E+002  0.45322976E-002 -0.21790638E+000
  0.15794576E+002  0.53824723E-002 -0.78161663E+000
  0.15536479E+002  0.14836052E+000 -0.16042256E+001
  0.15788274E+002  0.39149857E+000 -0.11033473E+001
  0.16916896E+002  0.19828806E-001 -0.44646360E-002
  0.17145709E+002 -0.26935555E+000  0.22152523E+000
  0.16039452E+002  0.44293988E+000  0.26930265E+001
  0.15220407E+002  0.26566020E+000  0.18776458E+001
  0.15192106E+002  0.31876240E-001  0.12019997E+001
  0.15143666E+002 -0.14819079E-001  0.42797860E+000
  0.15345524E+002 -0.10061826E-001 -0.27856706E+000
  0.15619019E+002  0.25309249E-002 -0.88576086E+000
  0.15511003E+002  0.16419275E+000 -0.16348572E+001
  0.15866919E+002  0.36860237E+000 -0.11405134E+001
  0.16918151E+002 -0.11747604E-001  0.38853076E-001
  0.17140493E+002 -0.27142698E+000  0.22443333E+000
  0.16166405E+002  0.39308760E+000  0.27621000E+001
  0.15242755E+002  0.27500219E+000  0.18593690E+001
  0.15064693E+002  0.41131927E-001  0.12734375E+001
  0.15017914E+002 -0.20154435E-001  0.44716747E+000
  0.15137122E+002 -0.17419055E-001 -0.34177594E+000
  0.15451780E+002  0.47084039E-002 -0.98168807E+000
  0.15510142E+002  0.17777011E+000 -0.16352675E+001
  0.15937373E+002  0.34782435E+000 -0.10570912E+001
  0.16918565E+002 -0.20749079E-001  0.32958361E-001
  0.17131971E+002 -0.27832346E+000  0.22656973E+000
  0.16291297E+002  0.33065198E+000  0.28504628E+001
  0.15297260E+002  0.27602902E+000  0.17877616E+001
  0.14975430E+002  0.52922606E-001  0.13151905E+001
  0.14740721E+002 -0.19570349E-001  0.48997013E+000
  0.14895370E+002 -0.23453605E-001 -0.36769231E+000
  0.15312666E+002  0.11093882E-001 -0.10651960E+001
  0.15529684E+002  0.18894123E+000 -0.15760439E+001
  0.16011300E+002  0.32745779E+000 -0.95890783E+000
  0.16917767E+002 -0.39663040E-001  0.70893170E-001
  0.17126012E+002 -0.28071431E+000  0.22926559E+000
  0.16396876E+002  0.29802356E+000  0.26425907E+001
  0.14886434E+002  0.22151226E+000  0.21763989E+001
  0.14945345E+002  0.65100355E-001  0.13249901E+001
  0.14511485E+002 -0.10777803E-001  0.52073130E+000
  0.14630670E+002 -0.18256423E-001 -0.42062920E+000
  0.15225494E+002  0.20483577E-001 -0.11270763E+001
  0.15244740E+002  0.14974070E+000 -0.18463557E+001
  0.16103594E+002  0.28017584E+000 -0.97318398E+000
  0.16915963E+002 -0.55325859E-001  0.10966558E+000
  0.17119685E+002 -0.28325309E+000  0.23182910E+000
  0.16484639E+002  0.25492891E+000  0.25601835E+001
  0.15039216E+002  0.22072214E+000  0.20255250E+001
  0.14994335E+002  0.73903846E-001  0.12871925E+001
  0.14374175E+002  0.63931245E-002  0.53106266E+000
  0.14456700E+002 -0.33898230E-002 -0.45489367E+000
  0.15212329E+002  0.30916158E-001 -0.11368750E+001
  0.15360551E+002  0.15547516E+000 -0.17295939E+001
  0.16184665E+002  0.24574476E+000 -0.90488190E+000
  0.16913448E+002 -0.57307850E-001  0.12349170E+000
  0.17112950E+002 -0.28593807E+000  0.23397378E+000
  0.16559717E+002  0.21143562E+000  0.22932447E+001
  0.15228423E+002  0.20423551E+000  0.18226584E+001
  0.14464334E+002  0.15002284E-001  0.18302695E+001
  0.14375755E+002  0.25812920E-001  0.51308224E+000
  0.14040874E+002 -0.29200296E-001 -0.46167440E+000
  0.15289854E+002  0.35847365E-001 -0.11055955E+001
  0.15511203E+002  0.15008851E+000 -0.15790697E+001
  0.16265358E+002  0.20849091E+000 -0.86046452E+000
  0.16910428E+002 -0.68792256E-001  0.15875542E+000
  0.17124277E+002 -0.29027813E+000 -0.61621406E+000
  0.16634465E+002  0.16519063E+000  0.20871308E+001
  0.15451471E+002  0.17259652E+000  0.16013057E+001
  0.14737206E+002  0.16324208E-001  0.16422034E+001
  0.14211850E+002  0.72572655E-003  0.47129094E+000
  0.14272416E+002 -0.45170523E-003 -0.43495002E+000
  0.14973620E+002 -0.19232621E-001 -0.14716109E+001
  0.15691606E+002  0.13005978E+000 -0.13953703E+001
  0.16342089E+002  0.17193250E+000 -0.80751462E+000
  0.16906807E+002 -0.79028784E-001  0.19372444E+000
  0.17115836E+002 -0.28938416E+000 -0.63215848E+000
  0.16701930E+002  0.10281139E+000  0.18214036E+001
  0.15697588E+002  0.12632737E+000  0.13564414E+001
  0.15100028E+002  0.59491762E-003  0.14076288E+001
  0.14652415E+002  0.25411489E-002  0.38649721E+000
  0.14673830E+002  0.29965440E-002 -0.37161994E+000
  0.15266166E+002 -0.24261584E-001 -0.12801026E+001
  0.15906066E+002  0.94652572E-001 -0.12269585E+001
  0.16408279E+002  0.14083624E+000 -0.71085124E+000
  0.16902465E+002 -0.88198525E-001  0.22803920E+000
  0.17107937E+002 -0.28988230E+000 -0.64921084E+000
  0.16561788E+002  0.14093602E+000  0.13707298E+001
  0.15957813E+002  0.63273525E-001  0.11036066E+001
  0.15523708E+002 -0.35649904E-001  0.11169651E+001
  0.15232615E+002 -0.29420530E-001  0.27692249E+000
  0.15225176E+002 -0.24783914E-001 -0.27898877E+000
  0.15622718E+002 -0.46079793E-001 -0.10431699E+001
  0.16125082E+002  0.49865338E-001 -0.10152157E+001
  0.16486869E+002  0.10800975E+000 -0.79150931E+000
  0.16897125E+002 -0.11418862E+000  0.31156558E+000
  0.17099758E+002 -0.29072647E+000 -0.66686043E+000
  0.16601368E+002  0.50455757E-001  0.56711106E+000
  0.16222348E+002 -0.75025367E-002  0.83989948E+000
  0.15971348E+002 -0.89674084E-001  0.80670607E+000
  0.15895826E+002 -0.98150078E-001  0.15520768E+000
  0.15866471E+002 -0.86398380E-001 -0.16668677E+000
  0.16012544E+002 -0.87539961E-001 -0.78893278E+000
  0.16349328E+002 -0.39480886E-002 -0.78372873E+000
  0.16542348E+002  0.73531520E-001 -0.67481962E+000
  0.16891336E+002 -0.11726977E+000  0.33748664E+000
  0.17089828E+002 -0.28910967E+000 -0.68595426E+000
  0.16695839E+002 -0.17124569E-001  0.31050198E+000
  0.16486063E+002 -0.82941332E-001  0.59740705E+000
  0.16410760E+002 -0.15962386E+000  0.51547530E+000
  0.16565593E+002 -0.18791917E+000  0.39591252E-001
  0.16519478E+002 -0.17363619E+000 -0.54129284E-001
  0.16400562E+002 -0.14033121E+000 -0.51745875E+000
  0.16581601E+002 -0.66030399E-001 -0.57816133E+000
  0.16596375E+002  0.41878156E-001 -0.63179016E+000
  0.16884913E+002 -0.12162354E+000  0.36446959E+000
  0.17081356E+002 -0.29103406E+000 -0.70431657E+000
  0.16762699E+002 -0.12012512E+000 -0.30350464E+000
  0.16735906E+002 -0.16044793E+000  0.34041194E+000
  0.16809151E+002 -0.23134374E+000  0.22495985E+000
  0.17163689E+002 -0.28440589E+000 -0.65995353E-001
  0.17107558E+002 -0.26497316E+000  0.53697427E-001
  0.16765743E+002 -0.19730193E+000 -0.25544676E+000
  0.16798429E+002 -0.12972555E+000 -0.34532974E+000
  0.16646428E+002  0.13160440E-001 -0.60263985E+000
  0.16877483E+002 -0.13568098E+000  0.42359733E+000
  0.17072334E+002 -0.29295133E+000 -0.72309820E+000
  0.16825275E+002 -0.15031259E+000 -0.42782129E+000
  0.16971093E+002 -0.23658918E+000  0.98845854E-001
  0.17149403E+002 -0.29917027E+000 -0.29917538E-001
  0.17631838E+002 -0.36636539E+000 -0.14841714E+000
  0.17566814E+002 -0.34495119E+000  0.13307540E+000
  0.17079548E+002 -0.25408473E+000 -0.22540836E-001
  0.17005198E+002 -0.19433740E+000 -0.12352286E+000
  0.16672064E+002 -0.71891248E-003 -0.49899831E+000
  0.16868378E+002 -0.13333174E+000  0.45427459E+000
  0.17062752E+002 -0.29491595E+000 -0.74230601E+000
  0.16843726E+002 -0.17241618E+000 -0.61722541E+000
  0.17184787E+002 -0.30518174E+000 -0.11234032E+000
  0.17423726E+002 -0.35452265E+000 -0.24127241E+000
  0.17949977E+002 -0.42578155E+000 -0.20301129E+000
  0.17881471E+002 -0.40479416E+000  0.18869754E+000
  0.17337119E+002 -0.30339862E+000  0.17045007E+000
  0.17196946E+002 -0.24739867E+000  0.84157663E-001
  0.16714918E+002 -0.26648228E-001 -0.48026073E+000
  0.16859371E+002 -0.13524179E+000  0.47896812E+000
  0.17051995E+002 -0.30480856E+000 -0.76110204E+000
  0.16880535E+002 -0.26402209E+000 -0.11561058E+001
  0.17377396E+002 -0.35739560E+000 -0.31825791E+000
  0.17627591E+002 -0.39529750E+000 -0.39964564E+000
  0.18122612E+002 -0.45858450E+000 -0.23465180E+000
  0.18056730E+002 -0.43829970E+000  0.22148570E+000
  0.17533445E+002 -0.34186895E+000  0.32530962E+000
  0.17371716E+002 -0.30193450E+000  0.27103352E+000
  0.16756002E+002 -0.44308058E-001 -0.51087272E+000
  0.16849283E+002 -0.13934027E+000  0.52153713E+000
