<?xml version="1.0"?>
<VTKFile type="PolyData" version="0.1" byte_order="LittleEndian">
  <PolyData>
    <Piece NumberOfPoints="     10" NumberOfVerts="  0" NumberOfLines="      9"
           NumberOfStrips="  0" NumberOfPolys="      0">
      <Points>
        <DataArray type="Float32" NumberOfComponents="3" format="ascii">
                       0.09128                       0.01724                     113.18144
                      12.75327                     -16.13829                     100.88204
                      21.74304                     -27.58586                      88.71684
                      29.28900                     -37.13793                      76.50325
                      33.01683                     -41.84216                      64.22247
                      33.01049                     -41.81469                      51.96639
                      29.27294                     -37.07949                      39.70235
                      21.73495                     -27.54095                      27.46560
                      12.73023                     -16.13394                      15.26272
                       0.00019                       0.00005                       3.00015
        </DataArray>
      </Points>
      <PointData>
        <DataArray type="Float32" Name="TranslationalVelocity" NumberOfComponents="3" format="ascii">
                       2.19365                       0.45724                      -0.01021
                      30.01174                      23.12462                      -1.26259
                      50.94639                      37.64711                       0.19508
                      68.26806                      50.87088                       1.04375
                      75.84642                      59.51637                       0.03956
                      75.76439                      60.25893                      -0.11167
                      67.82345                      52.64453                      -0.68192
                      50.41210                      38.86862                      -0.51808
                      29.20290                      23.04830                       0.20039
                       0.00020                       0.00012                       0.00104
        </DataArray>
        <DataArray type="Float32" Name="RotationalVelocity" NumberOfComponents="3" format="ascii">
                      -0.01792                       0.09407                       1.80935
                      -0.05093                       0.07445                       1.80508
                      -0.14480                      -0.09298                       1.76529
                       0.13566                       0.02006                       1.73567
                       0.16437                       0.06421                       1.80099
                      -0.03748                      -0.06409                       1.86347
                      -0.06027                      -0.04487                       1.83001
                       0.04162                       0.05759                       1.80567
                       0.02056                       0.01845                       1.81235
                       0.02003                       0.00260                       1.80161
        </DataArray>
        <DataArray type="Float32" Name="TranslationalAcceleration" NumberOfComponents="3" format="ascii">
                      21.90890                      -1.97469                      -0.16934
                      16.33674                       1.46242                     -11.12351
                      10.15981                       0.47760                      -8.37780
                       9.86725                     -16.92785                       2.17320
                       1.90739                      -4.73979                      -1.99361
                       3.54711                      12.53604                      -3.29452
                      10.28516                       9.24741                      -4.94606
                       3.63787                       5.68257                      -6.22364
                       1.48130                      -0.11228                      -3.15091
                      -0.01321                      -0.00711                      -0.08733
        </DataArray>
        <DataArray type="Float32" Name="OrientationX" NumberOfComponents="3" format="ascii">
                       0.92930                      -0.36932                      -0.00265
                       0.62354                      -0.78178                       0.00453
                       0.61580                      -0.78790                      -0.00010
                       0.61516                      -0.78840                      -0.00112
                       0.62007                      -0.78454                       0.00172
                       0.62121                      -0.78364                      -0.00070
                       0.61716                      -0.78683                      -0.00339
                       0.61823                      -0.78599                      -0.00067
                       0.62107                      -0.78376                      -0.00001
                       0.61926                      -0.78518                       0.00221
        </DataArray>
        <DataArray type="Float32" Name="OrientationY" NumberOfComponents="3" format="ascii">
                      -0.36933                      -0.92930                      -0.00118
                      -0.78179                      -0.62354                       0.00203
                      -0.78790                      -0.61580                       0.00162
                      -0.78841                      -0.61516                      -0.00054
                      -0.78454                      -0.62007                      -0.00024
                      -0.78364                      -0.62121                      -0.00028
                      -0.78684                      -0.61716                      -0.00035
                      -0.78599                      -0.61823                       0.00024
                      -0.78376                      -0.62107                       0.00002
                      -0.78517                      -0.61927                      -0.00426
        </DataArray>
        <DataArray type="Float32" Name="OrientationZ" NumberOfComponents="3" format="ascii">
                      -0.00203                       0.00207                      -1.00000
                       0.00124                      -0.00481                      -0.99999
                      -0.00134                      -0.00092                      -1.00000
                      -0.00027                       0.00121                      -1.00000
                       0.00125                      -0.00120                      -1.00000
                      -0.00022                       0.00073                      -1.00000
                      -0.00182                       0.00289                      -0.99999
                      -0.00060                       0.00037                      -1.00000
                      -0.00002                      -0.00001                      -1.00000
                       0.00471                       0.00090                      -0.99999
        </DataArray>
      </PointData>
      <Lines>
        <DataArray type="Int32" Name="connectivity" format="ascii">
      0      1
      1      2
      2      3
      3      4
      4      5
      5      6
      6      7
      7      8
      8      9
        </DataArray>
        <DataArray type="Int32" Name="offsets" format="ascii">
      2
      4
      6
      8
     10
     12
     14
     16
     18
        </DataArray>
      </Lines>
    </Piece>
  </PolyData>
</VTKFile>
