# vtk DataFile Version 2.0

ASCII
 
DATASET POLYDATA
POINTS 90 double
  0.70409328E-001  0.12977486E-001  0.11318156E+003
  0.12452394E+002 -0.16366080E+002  0.10089464E+003
  0.21234229E+002 -0.27960566E+002  0.88715296E+002
  0.28601865E+002 -0.37641535E+002  0.76493749E+002
  0.32251870E+002 -0.42428083E+002  0.64221495E+002
  0.32246839E+002 -0.42409190E+002  0.51967507E+002
  0.28589922E+002 -0.37599544E+002  0.39707925E+002
  0.21228803E+002 -0.27925602E+002  0.27470243E+002
  0.12436349E+002 -0.16361664E+002  0.15260696E+002
  0.18607695E-003  0.45982688E-004  0.30001419E+001
 -0.16681358E+001 -0.41376187E+001  0.11317804E+003
  0.89502413E+001 -0.19049888E+002  0.10090172E+003
  0.18762005E+002 -0.29825691E+002  0.88718947E+002
  0.26641129E+002 -0.39119656E+002  0.76492794E+002
  0.30457322E+002 -0.43794877E+002  0.64221211E+002
  0.30418991E+002 -0.43804646E+002  0.51966780E+002
  0.26516152E+002 -0.39168300E+002  0.39706978E+002
  0.18499134E+002 -0.29995329E+002  0.27470838E+002
  0.88585814E+001 -0.19091055E+002  0.15260752E+002
 -0.35826493E+001 -0.27226465E+001  0.29847599E+001
 -0.15912220E+001 -0.41092354E+001  0.11317716E+003
  0.87668180E+001 -0.19203629E+002  0.10090627E+003
  0.18387222E+002 -0.30147958E+002  0.88713963E+002
  0.26092206E+002 -0.39577189E+002  0.76482645E+002
  0.29826441E+002 -0.44330268E+002  0.64219422E+002
  0.29788231E+002 -0.44345482E+002  0.51968572E+002
  0.25967796E+002 -0.39635612E+002  0.39713924E+002
  0.18121250E+002 -0.30320132E+002  0.27476656E+002
  0.86824469E+001 -0.19246206E+002  0.15260353E+002
 -0.34612115E+001 -0.26572563E+001  0.29857889E+001
 -0.15108454E+001 -0.40787068E+001  0.11317697E+003
  0.85818151E+001 -0.19352395E+002  0.10090833E+003
  0.18008307E+002 -0.30461827E+002  0.88709924E+002
  0.25537035E+002 -0.40024259E+002  0.76474257E+002
  0.29188331E+002 -0.44853579E+002  0.64217901E+002
  0.29150438E+002 -0.44872748E+002  0.51969609E+002
  0.25413249E+002 -0.40090197E+002  0.39719015E+002
  0.17739053E+002 -0.30635673E+002  0.27480359E+002
  0.85035966E+001 -0.19395521E+002  0.15259526E+002
 -0.33377870E+001 -0.25911831E+001  0.29875749E+001
 -0.14265922E+001 -0.40461830E+001  0.11317723E+003
  0.83987092E+001 -0.19493849E+002  0.10091875E+003
  0.17624958E+002 -0.30767011E+002  0.88706643E+002
  0.24975684E+002 -0.40460691E+002  0.76467741E+002
  0.28543026E+002 -0.45364159E+002  0.64216771E+002
  0.28505592E+002 -0.45385930E+002  0.51969814E+002
  0.24852480E+002 -0.40531933E+002  0.39722312E+002
  0.17352356E+002 -0.30941495E+002  0.27482400E+002
  0.83236223E+001 -0.19537924E+002  0.15254462E+002
 -0.32124764E+001 -0.25243129E+001  0.29897736E+001
 -0.13382031E+001 -0.40118078E+001  0.11317768E+003
  0.82157016E+001 -0.19629315E+002  0.10092878E+003
  0.17236742E+002 -0.31063115E+002  0.88703840E+002
  0.24407968E+002 -0.40885819E+002  0.76462894E+002
  0.27889100E+002 -0.45859230E+002  0.64215792E+002
  0.27852052E+002 -0.45882412E+002  0.51969579E+002
  0.24285123E+002 -0.40960228E+002  0.39724224E+002
  0.16960906E+002 -0.31237037E+002  0.27483382E+002
  0.81410510E+001 -0.19674507E+002  0.15250742E+002
 -0.30855327E+001 -0.24567443E+001  0.29921087E+001
 -0.12453878E+001 -0.39757044E+001  0.11317800E+003
  0.80296179E+001 -0.19760700E+002  0.10093780E+003
  0.16843266E+002 -0.31349584E+002  0.88701093E+002
  0.23833713E+002 -0.41298592E+002  0.76459461E+002
  0.27226179E+002 -0.46337329E+002  0.64214750E+002
  0.27189127E+002 -0.46360739E+002  0.51969338E+002
  0.23710669E+002 -0.41373999E+002  0.39725227E+002
  0.16564407E+002 -0.31521670E+002  0.27483948E+002
  0.79563136E+001 -0.19805200E+002  0.15245875E+002
 -0.29572856E+001 -0.23883570E+001  0.29941384E+001
 -0.11480674E+001 -0.39377743E+001  0.11317813E+003
  0.78434508E+001 -0.19885734E+002  0.10094414E+003
  0.16445569E+002 -0.31627673E+002  0.88699392E+002
  0.23254193E+002 -0.41700069E+002  0.76457737E+002
  0.26555724E+002 -0.46800055E+002  0.64213988E+002
  0.26518268E+002 -0.46822828E+002  0.51969172E+002
  0.23130256E+002 -0.41774533E+002  0.39725426E+002
  0.16163757E+002 -0.31796477E+002  0.27484049E+002
  0.77699100E+001 -0.19929597E+002  0.15241994E+002
 -0.28277723E+001 -0.23192139E+001  0.29953597E+001
 -0.10474274E+001 -0.38980575E+001  0.11317816E+003
  0.76567609E+001 -0.20004535E+002  0.10094456E+003
  0.16044863E+002 -0.31898943E+002  0.88699357E+002
  0.22670665E+002 -0.42092167E+002  0.76457758E+002
  0.25879885E+002 -0.47250963E+002  0.64213919E+002
  0.25841991E+002 -0.47272983E+002  0.51968915E+002
  0.22545523E+002 -0.42164700E+002  0.39724881E+002
  0.15760107E+002 -0.32063186E+002  0.27483488E+002
  0.75820209E+001 -0.20047586E+002  0.15241293E+002
 -0.26969123E+001 -0.22494133E+001  0.29958171E+001
  
POLYGONS 72 360
      4      0      1     11     10
      4      1      2     12     11
      4      2      3     13     12
      4      3      4     14     13
      4      4      5     15     14
      4      5      6     16     15
      4      6      7     17     16
      4      7      8     18     17
      4      8      9     19     18
      4     10     11     21     20
      4     11     12     22     21
      4     12     13     23     22
      4     13     14     24     23
      4     14     15     25     24
      4     15     16     26     25
      4     16     17     27     26
      4     17     18     28     27
      4     18     19     29     28
      4     20     21     31     30
      4     21     22     32     31
      4     22     23     33     32
      4     23     24     34     33
      4     24     25     35     34
      4     25     26     36     35
      4     26     27     37     36
      4     27     28     38     37
      4     28     29     39     38
      4     30     31     41     40
      4     31     32     42     41
      4     32     33     43     42
      4     33     34     44     43
      4     34     35     45     44
      4     35     36     46     45
      4     36     37     47     46
      4     37     38     48     47
      4     38     39     49     48
      4     40     41     51     50
      4     41     42     52     51
      4     42     43     53     52
      4     43     44     54     53
      4     44     45     55     54
      4     45     46     56     55
      4     46     47     57     56
      4     47     48     58     57
      4     48     49     59     58
      4     50     51     61     60
      4     51     52     62     61
      4     52     53     63     62
      4     53     54     64     63
      4     54     55     65     64
      4     55     56     66     65
      4     56     57     67     66
      4     57     58     68     67
      4     58     59     69     68
      4     60     61     71     70
      4     61     62     72     71
      4     62     63     73     72
      4     63     64     74     73
      4     64     65     75     74
      4     65     66     76     75
      4     66     67     77     76
      4     67     68     78     77
      4     68     69     79     78
      4     70     71     81     80
      4     71     72     82     81
      4     72     73     83     82
      4     73     74     84     83
      4     74     75     85     84
      4     75     76     86     85
      4     76     77     87     86
      4     77     78     88     87
      4     78     79     89     88
  
CELL_DATA 72
SCALARS Gamma double
LOOKUP_TABLE default
  0.31180205E+002
  0.61861691E+002
  0.43729599E+002
  0.53402917E+002
  0.64079181E+002
  0.60762635E+002
  0.54966018E+002
  0.66251422E+002
  0.18425397E+002
  0.31180205E+002
  0.61861691E+002
  0.43729599E+002
  0.53402917E+002
  0.64079181E+002
  0.60762635E+002
  0.54966018E+002
  0.66251422E+002
  0.18425397E+002
  0.21751674E+002
  0.43748467E+002
  0.31092012E+002
  0.37702419E+002
  0.44954690E+002
  0.42522550E+002
  0.38757463E+002
  0.47116865E+002
  0.12995209E+002
  0.12940546E+002
  0.26383846E+002
  0.18957153E+002
  0.22682258E+002
  0.26751777E+002
  0.25299876E+002
  0.23305827E+002
  0.28582989E+002
  0.78166061E+001
  0.55517334E+001
  0.11524444E+002
  0.84253451E+001
  0.98669053E+001
  0.11443381E+002
  0.10857547E+002
  0.10153410E+002
  0.12534465E+002
  0.33987728E+001
  0.10796506E+001
  0.22864924E+001
  0.17123151E+001
  0.19508177E+001
  0.22107269E+001
  0.21117534E+001
  0.20087758E+001
  0.24850141E+001
  0.67029763E+000
  0.12168383E-001
  0.26361473E-001
  0.20268502E-001
  0.22122473E-001
  0.24323726E-001
  0.23479501E-001
  0.22930704E-001
  0.28397287E-001
  0.76470951E-002
  0.00000000E+000
  0.00000000E+000
  0.00000000E+000
  0.00000000E+000
  0.00000000E+000
  0.00000000E+000
  0.00000000E+000
  0.00000000E+000
  0.00000000E+000
POINT_DATA 90
VECTORS Uconv double
  0.00000000E+000  0.00000000E+000  0.00000000E+000
  0.00000000E+000  0.00000000E+000  0.00000000E+000
  0.00000000E+000  0.00000000E+000  0.00000000E+000
  0.00000000E+000  0.00000000E+000  0.00000000E+000
  0.00000000E+000  0.00000000E+000  0.00000000E+000
  0.00000000E+000  0.00000000E+000  0.00000000E+000
  0.00000000E+000  0.00000000E+000  0.00000000E+000
  0.00000000E+000  0.00000000E+000  0.00000000E+000
  0.00000000E+000  0.00000000E+000  0.00000000E+000
  0.00000000E+000  0.00000000E+000  0.00000000E+000
  0.00000000E+000  0.00000000E+000  0.00000000E+000
  0.00000000E+000  0.00000000E+000  0.00000000E+000
  0.00000000E+000  0.00000000E+000  0.00000000E+000
  0.00000000E+000  0.00000000E+000  0.00000000E+000
  0.00000000E+000  0.00000000E+000  0.00000000E+000
  0.00000000E+000  0.00000000E+000  0.00000000E+000
  0.00000000E+000  0.00000000E+000  0.00000000E+000
  0.00000000E+000  0.00000000E+000  0.00000000E+000
  0.00000000E+000  0.00000000E+000  0.00000000E+000
  0.00000000E+000  0.00000000E+000  0.00000000E+000
  0.17139143E+002 -0.53791755E-001 -0.24530113E+000
  0.17099391E+002  0.37721175E-001 -0.51272261E+000
  0.17103433E+002  0.11840417E+000 -0.16200505E+000
  0.17046105E+002  0.19731995E+000 -0.14501289E+000
  0.16873095E+002  0.40988232E+000 -0.79651750E-001
  0.16855986E+002  0.43203466E+000  0.93607979E-001
  0.17015857E+002  0.24408075E+000  0.18292517E+000
  0.17077479E+002  0.15338012E+000  0.20104187E+000
  0.17142358E+002  0.67016396E-001  0.20183049E+000
  0.16988460E+002  0.46586537E-001 -0.25152029E+000
  0.17137593E+002 -0.53322045E-001 -0.24601808E+000
  0.17090418E+002  0.18256158E-001 -0.49794343E+000
  0.17128302E+002  0.87004739E-001 -0.11795548E+000
  0.17082803E+002  0.14915496E+000 -0.10141876E+000
  0.16966457E+002  0.29408103E+000 -0.60918486E-001
  0.16953289E+002  0.31248229E+000  0.72571904E-001
  0.17060766E+002  0.18725204E+000  0.13037114E+000
  0.17107149E+002  0.11644878E+000  0.14913242E+000
  0.17142241E+002  0.53521001E-001  0.19447660E+000
  0.16991520E+002  0.42631540E-001 -0.24261627E+000
  0.17135964E+002 -0.52847136E-001 -0.24667044E+000
  0.17076416E+002 -0.35169892E-002 -0.45084220E+000
  0.17153383E+002  0.54160666E-001 -0.72593840E-001
  0.17124028E+002  0.93443501E-001 -0.52953998E-001
  0.17074415E+002  0.15499713E+000 -0.38016493E-001
  0.17065316E+002  0.16913474E+000  0.46802260E-001
  0.17110221E+002  0.12195738E+000  0.72204519E-001
  0.17136769E+002  0.77989305E-001  0.96208902E-001
  0.17166494E+002  0.55887861E-001  0.99713466E-001
  0.16994636E+002  0.38647225E-001 -0.23348562E+000
  0.17134251E+002 -0.52369581E-001 -0.24724691E+000
  0.17140752E+002  0.25468099E-001 -0.22844990E+000
  0.17177887E+002  0.20737316E-001 -0.27156147E-001
  0.17166268E+002  0.34497904E-001 -0.31359824E-002
  0.17180652E+002  0.11842575E-001 -0.13598083E-001
  0.17175165E+002  0.21754662E-001  0.19253849E-001
  0.17160403E+002  0.53087047E-001  0.12624875E-001
  0.17165526E+002  0.39070152E-001  0.43490457E-001
  0.17173522E+002  0.47153818E-001  0.79740839E-001
  0.16997802E+002  0.34660038E-001 -0.22413869E+000
  0.17132453E+002 -0.51893417E-001 -0.24773477E+000
  0.17147947E+002  0.17277380E-001 -0.18095553E+000
  0.17200819E+002 -0.11952223E-001  0.65437584E-002
  0.17205735E+002 -0.22731635E-001  0.44220627E-001
  0.17270392E+002 -0.11627571E+000  0.99414496E-002
  0.17267715E+002 -0.10967926E+000 -0.67809160E-002
  0.17206889E+002 -0.13716567E-001 -0.43917878E-001
  0.17192488E+002  0.74274292E-003 -0.75542867E-002
  0.17180287E+002  0.38471561E-001  0.60425946E-001
  0.17001014E+002  0.30707302E-001 -0.21458154E+000
  0.17130568E+002 -0.51424865E-001 -0.24811268E+000
  0.17107832E+002 -0.21425655E-001  0.19957949E-001
  0.17222253E+002 -0.43835500E-001  0.51021209E-001
  0.17239496E+002 -0.73613786E-001  0.85792765E-001
  0.17335020E+002 -0.21405794E+000  0.30862839E-001
  0.17334448E+002 -0.21080898E+000 -0.29246314E-001
  0.17246377E+002 -0.73235731E-001 -0.93607833E-001
  0.17217093E+002 -0.35879504E-001 -0.55639275E-001
  0.17169560E+002  0.18798141E-001 -0.23785825E-001
  0.17004281E+002  0.26816054E-001 -0.20480606E+000
  0.17128619E+002 -0.50979288E-001 -0.24835540E+000
  0.17132733E+002 -0.18113529E-001  0.61013791E-001
  0.17241591E+002 -0.73449002E-001  0.91506040E-001
  0.17265852E+002 -0.11497371E+000  0.11937088E+000
  0.17373115E+002 -0.27653233E+000  0.44299653E-001
  0.17374109E+002 -0.27595701E+000 -0.45002947E-001
  0.17277128E+002 -0.12185781E+000 -0.13391657E+000
  0.17239021E+002 -0.69823796E-001 -0.99737351E-001
  0.17182481E+002  0.14779434E-001 -0.35416908E-001
  0.17007596E+002  0.22987688E-001 -0.19482275E+000
