# vtk DataFile Version 2.0
BldPointCP.BldC
ASCII
 
DATASET POLYDATA
POINTS 9 double
  0.62647633E+001 -0.96019896E+001  0.10635026E+003
  0.15345642E+002 -0.23543955E+002  0.94568335E+002
  0.22596658E+002 -0.34667669E+002  0.82333194E+002
  0.27505211E+002 -0.42195211E+002  0.70078306E+002
  0.29090785E+002 -0.44626866E+002  0.58092790E+002
  0.27504319E+002 -0.42192719E+002  0.46108074E+002
  0.22595730E+002 -0.34662833E+002  0.33853439E+002
  0.15344709E+002 -0.23540132E+002  0.21615116E+002
  0.62589455E+001 -0.96019173E+001  0.98312175E+001
  
POINT_DATA 9
SCALARS Gamma_LL double
LOOKUP_TABLE default
  0.10796506E+001
  0.22864924E+001
  0.17123151E+001
  0.19508177E+001
  0.22107269E+001
  0.21117534E+001
  0.20087758E+001
  0.24850141E+001
  0.67029763E+000
VECTORS Vind_CP double
 -0.27266571E-002 -0.16399962E-002 -0.42308300E-002
 -0.16533857E-002  0.25053841E-002 -0.42526062E-002
 -0.17705591E-002  0.21127261E-002 -0.20569109E-002
 -0.34288917E-002  0.43369099E-002 -0.18655492E-002
 -0.51285303E-002  0.67678553E-002  0.22550977E-004
 -0.39121251E-002  0.50217435E-002  0.22677000E-002
 -0.24281210E-002  0.31063322E-002  0.29773113E-002
 -0.26185676E-002  0.35852477E-002  0.51151612E-002
 -0.22013434E-002 -0.26414645E-002  0.15645400E-002
VECTORS Vtot_CP double
 -0.60800185E+000 -0.11318212E+002  0.33301705E+000
 -0.25643639E+002 -0.27090479E+002  0.78948700E-001
 -0.45960326E+002 -0.39687687E+002 -0.46836924E+000
 -0.59457582E+002 -0.48820527E+002 -0.33988444E+000
 -0.63694424E+002 -0.52019880E+002 -0.66055276E-001
 -0.59355117E+002 -0.49090449E+002  0.15711702E+000
 -0.45817386E+002 -0.40145850E+002  0.25878602E+000
 -0.25499445E+002 -0.27398265E+002 -0.65893172E-001
 -0.13212585E+000 -0.11298262E+002 -0.20142583E+000
VECTORS Vstr_CP double
  0.17805275E+002  0.11316572E+002 -0.33724788E+000
  0.42841986E+002  0.27092984E+002 -0.83201307E-001
  0.63158555E+002  0.39689800E+002  0.46631233E+000
  0.76654153E+002  0.48824863E+002  0.33801889E+000
  0.80889295E+002  0.52026647E+002  0.66077827E-001
  0.76551204E+002  0.49095470E+002 -0.15484932E+000
  0.63014958E+002  0.40148957E+002 -0.25580871E+000
  0.42696827E+002  0.27401850E+002  0.71008334E-001
  0.17329925E+002  0.11295620E+002  0.20299037E+000
VECTORS Vwnd_CP double
  0.17200000E+002  0.00000000E+000  0.00000000E+000
  0.17200000E+002  0.00000000E+000  0.00000000E+000
  0.17200000E+002  0.00000000E+000  0.00000000E+000
  0.17200000E+002  0.00000000E+000  0.00000000E+000
  0.17200000E+002  0.00000000E+000  0.00000000E+000
  0.17200000E+002  0.00000000E+000  0.00000000E+000
  0.17200000E+002  0.00000000E+000  0.00000000E+000
  0.17200000E+002  0.00000000E+000  0.00000000E+000
  0.17200000E+002  0.00000000E+000  0.00000000E+000
VECTORS Tangent double
 -0.66576448E+000 -0.74616193E+000  0.18228495E-003
 -0.83764164E+000 -0.54622008E+000  0.32397495E-003
 -0.83785886E+000 -0.54588688E+000  0.19557555E-003
 -0.83767295E+000 -0.54617215E+000  0.66984944E-004
 -0.83739012E+000 -0.54660569E+000 -0.67406189E-004
 -0.83764585E+000 -0.54621369E+000 -0.19922766E-003
 -0.83781743E+000 -0.54595049E+000 -0.89607058E-004
 -0.83765043E+000 -0.54620670E+000  0.25014176E-005
 -0.83764694E+000 -0.54621193E+000 -0.35923768E-003
VECTORS Normal double
  0.39227166E+000 -0.34979735E+000  0.85074365E+000
  0.35224076E+000 -0.53971618E+000  0.76461290E+000
  0.38762931E+000 -0.59470363E+000  0.70432316E+000
  0.48945459E+000 -0.75062989E+000  0.44383440E+000
  0.54660569E+000 -0.83739012E+000 -0.10580684E-003
  0.48948537E+000 -0.75048819E+000 -0.44404003E+000
  0.38761273E+000 -0.59471617E+000 -0.70432169E+000
  0.35215501E+000 -0.54006057E+000 -0.76440920E+000
  0.27990052E+000 -0.42867834E+000 -0.85900558E+000
VECTORS Orth double
  0.63472876E+000 -0.56646641E+000 -0.52558083E+000
  0.41747207E+000 -0.64058572E+000 -0.64448973E+000
  0.38436446E+000 -0.59019921E+000 -0.70987946E+000
  0.24235971E+000 -0.37182086E+000 -0.89610882E+000
 -0.13893454E-005  0.12544621E-003 -0.99999999E+000
 -0.24239123E+000  0.37204581E+000 -0.89600692E+000
 -0.38447149E+000  0.59012773E+000 -0.70988094E+000
 -0.41752678E+000  0.64030682E+000 -0.64473139E+000
 -0.46904510E+000  0.71964394E+000 -0.51196610E+000
