# vtk DataFile Version 2.0
Sgmt
ASCII
 
DATASET POLYDATA
POINTS 1710 double
  0.34926978E+000  0.77832587E-001  0.11318060E+003
 -0.19430110E+002 -0.62367044E+001  0.10131326E+003
 -0.33346681E+002 -0.10754770E+002  0.89212190E+002
 -0.44638314E+002 -0.14536888E+002  0.76788995E+002
 -0.50279135E+002 -0.16457480E+002  0.64498619E+002
 -0.50291391E+002 -0.16481533E+002  0.52249151E+002
 -0.44621178E+002 -0.14567719E+002  0.39974365E+002
 -0.33329633E+002 -0.10728385E+002  0.27528593E+002
 -0.19577470E+002 -0.62560136E+001  0.15242269E+002
  0.15741017E-003  0.26351259E-004  0.30001956E+001
 -0.39383217E+001 -0.12858729E+001  0.11309774E+003
 -0.20790867E+002 -0.20395321E+001  0.10130707E+003
 -0.34318428E+002 -0.78143106E+001  0.89210143E+002
 -0.45365483E+002 -0.12191624E+002  0.76771976E+002
 -0.50914299E+002 -0.14292995E+002  0.64488841E+002
 -0.50942387E+002 -0.14275989E+002  0.52259489E+002
 -0.45363042E+002 -0.12075505E+002  0.39979150E+002
 -0.34335396E+002 -0.74537487E+001  0.27536176E+002
 -0.20915711E+002 -0.19596086E+001  0.15246115E+002
 -0.13544455E+001  0.42912996E+001  0.30052295E+001
 -0.38238686E+001 -0.12193327E+001  0.11310699E+003
 -0.20682382E+002 -0.16528049E+001  0.10130413E+003
 -0.34305472E+002 -0.71713890E+001  0.89179963E+002
 -0.45454067E+002 -0.11338876E+002  0.76747818E+002
 -0.51059232E+002 -0.13333305E+002  0.64462491E+002
 -0.51084561E+002 -0.13314441E+002  0.52226759E+002
 -0.45453950E+002 -0.11224739E+002  0.39944458E+002
 -0.34320535E+002 -0.68196073E+001  0.27510482E+002
 -0.20793666E+002 -0.15737002E+001  0.15233296E+002
 -0.11080040E+001  0.43154859E+001  0.30042509E+001
 -0.37072758E+001 -0.11520748E+001  0.11311638E+003
 -0.20564796E+002 -0.12658809E+001  0.10130020E+003
 -0.34280130E+002 -0.65264476E+001  0.89150800E+002
 -0.45529788E+002 -0.10482422E+002  0.76726892E+002
 -0.51189975E+002 -0.12368560E+002  0.64438409E+002
 -0.51212033E+002 -0.12347634E+002  0.52194378E+002
 -0.45530219E+002 -0.10369305E+002  0.39909396E+002
 -0.34294113E+002 -0.61823929E+001  0.27485495E+002
 -0.20663275E+002 -0.11875016E+001  0.15222210E+002
 -0.86126278E+000  0.43376408E+001  0.30040602E+001
 -0.35886005E+001 -0.10839437E+001  0.11313831E+003
 -0.20436656E+002 -0.87954140E+000  0.10129873E+003
 -0.34241821E+002 -0.58799345E+001  0.89122189E+002
 -0.45587887E+002 -0.96227946E+001  0.76707083E+002
 -0.51304760E+002 -0.11399301E+002  0.64415524E+002
 -0.51325809E+002 -0.11376279E+002  0.52161954E+002
 -0.45590355E+002 -0.95097634E+001  0.39874717E+002
 -0.34255320E+002 -0.55425071E+001  0.27461382E+002
 -0.20524022E+002 -0.80143664E+000  0.15210697E+002
 -0.61426010E+000  0.43576779E+001  0.30042811E+001
 -0.34673602E+001 -0.10149877E+001  0.11313991E+003
 -0.20297229E+002 -0.49433255E+000  0.10129696E+003
 -0.34189775E+002 -0.52323765E+001  0.89093577E+002
 -0.45632955E+002 -0.87601650E+001  0.76690568E+002
 -0.51403486E+002 -0.10426064E+002  0.64395149E+002
 -0.51420438E+002 -0.10400722E+002  0.52131312E+002
 -0.45635763E+002 -0.86464647E+001  0.39839814E+002
 -0.34203204E+002 -0.49004086E+001  0.27439047E+002
 -0.20374658E+002 -0.41533474E+000  0.15208322E+002
 -0.36590590E+000  0.43761424E+001  0.30088632E+001
 -0.33435948E+001 -0.94513613E+000  0.11312205E+003
 -0.20148422E+002 -0.10992076E+000  0.10128156E+003
 -0.34122976E+002 -0.45843861E+001  0.89063594E+002
 -0.45663978E+002 -0.78948569E+001  0.76676975E+002
 -0.51488177E+002 -0.94492808E+001  0.64377247E+002
 -0.51501588E+002 -0.94217376E+001  0.52100950E+002
 -0.45666695E+002 -0.77798334E+001  0.39804533E+002
 -0.34136757E+002 -0.42565924E+001  0.27420193E+002
 -0.20215887E+002 -0.30017871E-001  0.15203886E+002
 -0.11743434E+000  0.43932087E+001  0.30130253E+001
 -0.32173136E+001 -0.87449451E+000  0.11312329E+003
 -0.19988767E+002  0.27299888E+000  0.10127515E+003
 -0.34045198E+002 -0.39370505E+001  0.89037103E+002
 -0.45676201E+002 -0.70275324E+001  0.76664066E+002
 -0.51552903E+002 -0.84694357E+001  0.64360580E+002
 -0.51564000E+002 -0.84397078E+001  0.52071606E+002
 -0.45678941E+002 -0.69105856E+001  0.39771088E+002
 -0.34061414E+002 -0.36127341E+001  0.27398083E+002
 -0.20047801E+002  0.35412958E+000  0.15200041E+002
  0.13106748E+000  0.44082600E+001  0.30216858E+001
 -0.30882192E+001 -0.80328746E+000  0.11312413E+003
 -0.19820938E+002  0.65546822E+000  0.10125724E+003
 -0.33950646E+002 -0.32902525E+001  0.89008198E+002
 -0.45666473E+002 -0.61589069E+001  0.76650048E+002
 -0.51594530E+002 -0.74870847E+001  0.64345368E+002
 -0.51603655E+002 -0.74552304E+001  0.52043908E+002
 -0.45668789E+002 -0.60395348E+001  0.39742033E+002
 -0.33965097E+002 -0.29679864E+001  0.27385670E+002
 -0.19870526E+002  0.73723679E+000  0.15198624E+002
  0.37958610E+000  0.44217225E+001  0.30307796E+001
 -0.29561352E+001 -0.73117323E+000  0.11312459E+003
 -0.19643019E+002  0.10359876E+001  0.10123676E+003
 -0.33837485E+002 -0.26449609E+001  0.88975247E+002
 -0.45633946E+002 -0.52911037E+001  0.76637205E+002
 -0.51606130E+002 -0.65040505E+001  0.64328825E+002
 -0.51619250E+002 -0.64701883E+001  0.52019561E+002
 -0.45632725E+002 -0.51677163E+001  0.39719092E+002
 -0.33851059E+002 -0.23234109E+001  0.27378672E+002
 -0.19684485E+002  0.11193080E+001  0.15198041E+002
  0.62816053E+000  0.44336928E+001  0.30372999E+001
 -0.28205079E+001 -0.65782039E+000  0.11310779E+003
 -0.19454005E+002  0.14143256E+001  0.10121513E+003
 -0.33706621E+002 -0.20013557E+001  0.88939871E+002
 -0.45575243E+002 -0.44234671E+001  0.76621169E+002
 -0.51579714E+002 -0.55208194E+001  0.64311887E+002
 -0.51587848E+002 -0.54843628E+001  0.51999981E+002
 -0.45578495E+002 -0.42973301E+001  0.39693875E+002
 -0.33715435E+002 -0.16793514E+001  0.27381884E+002
 -0.19489079E+002  0.14997713E+001  0.15199349E+002
  0.87705151E+000  0.44436461E+001  0.30418941E+001
 -0.26817616E+001 -0.58253044E+000  0.11310731E+003
 -0.19257074E+002  0.17906405E+001  0.10116989E+003
 -0.33557669E+002 -0.13600264E+001  0.88902121E+002
 -0.45490035E+002 -0.35578334E+001  0.76601488E+002
 -0.51505563E+002 -0.45395350E+001  0.64292727E+002
 -0.51513466E+002 -0.45010532E+001  0.51986683E+002
 -0.45491436E+002 -0.34281416E+001  0.39681676E+002
 -0.33560951E+002 -0.10373282E+001  0.27390167E+002
 -0.19288675E+002  0.18783026E+001  0.15200914E+002
  0.11263865E+001  0.44523252E+001  0.30468519E+001
 -0.25392354E+001 -0.50605712E+000  0.11310929E+003
 -0.19068763E+002  0.21667973E+001  0.10114090E+003
 -0.33387096E+002 -0.72121228E+000  0.88857951E+002
 -0.45375241E+002 -0.26945313E+001  0.76576568E+002
 -0.51394748E+002 -0.35625516E+001  0.64274224E+002
 -0.51401863E+002 -0.35221706E+001  0.51976907E+002
 -0.45375427E+002 -0.25612585E+001  0.39678274E+002
 -0.33390127E+002 -0.39721845E+000  0.27404749E+002
 -0.19086248E+002  0.22552872E+001  0.15189222E+002
  0.13762893E+001  0.44596772E+001  0.30515889E+001
 -0.23926106E+001 -0.42851097E+000  0.11311021E+003
 -0.18853595E+002  0.25400519E+001  0.10107636E+003
 -0.33200950E+002 -0.85142192E-001  0.88813962E+002
 -0.45232546E+002 -0.18342963E+001  0.76548133E+002
 -0.51245719E+002 -0.25907828E+001  0.64254451E+002
 -0.51255428E+002 -0.25487012E+001  0.51973018E+002
 -0.45226247E+002 -0.16975787E+001  0.39688093E+002
 -0.33203418E+002  0.24052432E+000  0.27423229E+002
 -0.18865277E+002  0.26320451E+001  0.15198668E+002
  0.16268138E+001  0.44655329E+001  0.30564377E+001
 -0.22416553E+001 -0.34996526E+000  0.11311134E+003
 -0.18628784E+002  0.29119990E+001  0.10102674E+003
 -0.33000964E+002  0.54849652E+000  0.88772694E+002
 -0.45059624E+002 -0.97760370E+000  0.76512391E+002
 -0.51073236E+002 -0.16241267E+001  0.64235307E+002
 -0.51078237E+002 -0.15806727E+001  0.51973933E+002
 -0.45054230E+002 -0.83761528E+000  0.39703493E+002
 -0.33002570E+002  0.87587555E+000  0.27444444E+002
 -0.18636701E+002  0.30069080E+001  0.15207941E+002
  0.18782474E+001  0.44711386E+001  0.30592933E+001
 -0.20862435E+001 -0.27044478E+000  0.11311226E+003
 -0.18397410E+002  0.32836431E+001  0.10097756E+003
 -0.32788625E+002  0.11798171E+001  0.88734672E+002
 -0.44868296E+002 -0.12403907E+000  0.76478272E+002
 -0.50878521E+002 -0.66120594E+000  0.64218032E+002
 -0.50882304E+002 -0.61681990E+000  0.51977749E+002
 -0.44864150E+002  0.18775517E-001  0.39721799E+002
 -0.32789462E+002  0.15089082E+001  0.27466996E+002
 -0.18401704E+002  0.33805543E+001  0.15214926E+002
  0.21298359E+001  0.44753354E+001  0.30628114E+001
 -0.19260603E+001 -0.19028429E+000  0.11311222E+003
 -0.18157504E+002  0.36539241E+001  0.10093555E+003
 -0.32564504E+002  0.18088832E+001  0.88701950E+002
 -0.44657972E+002  0.72632199E+000  0.76447221E+002
 -0.50673306E+002  0.29915071E+000  0.64204955E+002
 -0.50675968E+002  0.34392351E+000  0.51982669E+002
 -0.44656257E+002  0.87154240E+000  0.39742299E+002
 -0.32565426E+002  0.21395554E+001  0.27488601E+002
 -0.18159294E+002  0.37519888E+001  0.15217759E+002
  0.23815305E+001  0.44781867E+001  0.30669776E+001
 -0.17608116E+001 -0.10965232E+000  0.11311112E+003
 -0.17911992E+002  0.40228695E+001  0.10088733E+003
 -0.32333443E+002  0.24363285E+001  0.88678505E+002
 -0.44436411E+002  0.15740747E+001  0.76423515E+002
 -0.50452724E+002  0.12567334E+001  0.64194486E+002
 -0.50455110E+002  0.13014597E+001  0.51989707E+002
 -0.44436565E+002  0.17208896E+001  0.39760933E+002
 -0.32348259E+002  0.27702764E+001  0.27490600E+002
 -0.17910696E+002  0.41217654E+001  0.15229829E+002
  0.26331699E+001  0.44800657E+001  0.30695186E+001
 -0.15914343E+001 -0.29044275E-001  0.11310950E+003
 -0.17659342E+002  0.43915391E+001  0.10085730E+003
 -0.32111199E+002  0.30657044E+001  0.88679471E+002
 -0.44206194E+002  0.24204043E+001  0.76406679E+002
 -0.50229061E+002  0.22133394E+001  0.64188826E+002
 -0.50230127E+002  0.22578088E+001  0.51994789E+002
 -0.44206080E+002  0.25677332E+001  0.39775920E+002
 -0.32113110E+002  0.33981642E+001  0.27497525E+002
 -0.17655334E+002  0.44899056E+001  0.15236541E+002
  0.28846490E+001  0.44805745E+001  0.30723762E+001
[...]
CELL_DATA 3159
SCALARS Gamma double
LOOKUP_TABLE default
 -0.42547860E+001
  0.42547860E+001
 -0.15731063E+003
  0.15305584E+003
 -0.14299805E+003
 -0.14312572E+002
 -0.10775207E+003
 -0.35245989E+002
 -0.86500484E+002
 -0.21251582E+002
 -0.77819245E+002
 -0.86812389E+001
 -0.94564929E+002
  0.16745685E+002
 -0.13627156E+003
  0.41706631E+002
 -0.58695410E+002
 -0.77576151E+002
 -0.58695410E+002
  0.00000000E+000
  0.42547860E+001
  0.00000000E+000
  0.15305584E+003
  0.00000000E+000
 -0.14312572E+002
  0.00000000E+000
 -0.35245989E+002
  0.00000000E+000
 -0.21251582E+002
  0.00000000E+000
 -0.86812389E+001
  0.00000000E+000
  0.16745685E+002
  0.00000000E+000
  0.41706631E+002
  0.00000000E+000
 -0.77576151E+002
 -0.58695410E+002
 -0.10635465E+000
  0.43611406E+001
 -0.91854594E+000
  0.15386803E+003
 -0.54655424E+000
 -0.14684563E+002
 -0.23314196E+001
 -0.33461123E+002
 -0.41026291E+001
 -0.19480372E+002
 -0.46741061E+001
 -0.81097619E+001
 -0.43025796E+001
  0.16374158E+002
 -0.24285716E+001
  0.39832623E+002
 -0.20680711E+001
 -0.77936651E+002
 -0.60763481E+002
 -0.11485175E+000
  0.44759924E+001
 -0.83517156E+000
  0.15458835E+003
 -0.38570430E+000
 -0.15134031E+002
 -0.20659429E+001
 -0.31780885E+002
 -0.44499391E+001
 -0.17096376E+002
 -0.48851336E+001
 -0.76745674E+001
 -0.43079570E+001
  0.15796982E+002
 -0.24364484E+001
  0.37961114E+002
 -0.21065739E+001
 -0.78266526E+002
 -0.62870055E+002
 -0.12186431E+000
  0.45978567E+001
 -0.73697808E+000
  0.15520346E+003
 -0.18697577E+000
 -0.15684033E+002
 -0.22518348E+001
 -0.29716026E+002
 -0.49215414E+001
 -0.14426669E+002
 -0.51651845E+001
 -0.74309243E+001
 -0.42935679E+001
  0.14925365E+002
 -0.23938117E+001
  0.36061358E+002
 -0.21508727E+001
 -0.78509465E+002
 -0.65020927E+002
 -0.13068741E+000
  0.47285441E+001
 -0.65029999E+000
  0.15572308E+003
 -0.74135204E-001
 -0.16260198E+002
 -0.23141768E+001
 -0.27475984E+002
 -0.50345155E+001
 -0.11706331E+002
 -0.51552368E+001
 -0.73102029E+001
 -0.42361870E+001
  0.14006315E+002
 -0.22305834E+001
  0.34055755E+002
 -0.21797801E+001
 -0.78560268E+002
 -0.67200707E+002
 -0.13745155E+000
  0.48659957E+001
 -0.55263701E+000
  0.15613826E+003
  0.70155900E-001
 -0.16882991E+002
 -0.23672779E+001
 -0.25038550E+002
 -0.51899116E+001
 -0.88836971E+001
 -0.51982565E+001
 -0.73018580E+001
 -0.39157700E+001
  0.12723829E+002
 -0.21037404E+001
  0.32243725E+002
 -0.22148052E+001
 -0.78449203E+002
 -0.69415513E+002
 -0.14351985E+000
  0.50095155E+001
 -0.44288301E+000
  0.15643763E+003
  0.19745549E+000
 -0.17523329E+002
 -0.24051006E+001
 -0.22435994E+002
 -0.49591754E+001
 -0.63296223E+001
 -0.52127925E+001
 -0.70482410E+001
 -0.32331920E+001
  0.10744228E+002
 -0.20389841E+001
  0.31049517E+002
 -0.22450642E+001
 -0.78243123E+002
 -0.71660577E+002
 -0.13997529E+000
  0.51494908E+001
 -0.92830764E-001
  0.15639048E+003
  0.52297140E+000
 -0.18139131E+002
 -0.23503403E+001
 -0.19562683E+002
 -0.39115262E+001
 -0.47684364E+001
 -0.50048418E+001
 -0.59549254E+001
 -0.29758320E+001
  0.87152186E+001
 -0.17509083E+001
  0.29824593E+002
 -0.21431196E+001
 -0.77850912E+002
 -0.73803696E+002
  0.14837073E-001
  0.51346537E+001
  0.48806848E+001
  0.15152463E+003
  0.49326920E+001
 -0.18191138E+002
  0.12062066E+001
 -0.15836197E+002
 -0.13701543E+000
 -0.34252144E+001
 -0.79400306E+000
 -0.52979378E+001
  0.88270414E+000
  0.70385114E+001
  0.29489499E+001
  0.27758347E+002
  0.14956181E+000
 -0.75051524E+002
 -0.73654135E+002
  0.47592712E+000
  0.46587266E+001
  0.18303795E+002
  0.13369677E+003
  0.16748446E+002
 -0.16635789E+002
  0.12128025E+002
 -0.11215776E+002
  0.10640676E+002
 -0.19378658E+001
  0.10099609E+002
 -0.47568714E+001
  0.11731022E+002
  0.54070988E+001
  0.15972660E+002
  0.23516710E+002
  0.67350539E+001
 -0.65813918E+002
 -0.66919081E+002
  0.83211125E+000
  0.38266154E+001
  0.27867914E+002
  0.10666096E+003
  0.24918373E+002
 -0.13686248E+002
  0.20471167E+002
 -0.67685699E+001
  0.18877183E+002
 -0.34388132E+000
  0.18315604E+002
 -0.41952929E+001
  0.19841319E+002
  0.38813838E+001
  0.25575396E+002
  0.17782634E+002
  0.12482756E+002
 -0.52721278E+002
 -0.54436325E+002
  0.99235881E+000
  0.28342566E+001
  0.31099255E+002
  0.76554066E+002
  0.27415886E+002
 -0.10002878E+002
  0.23975277E+002
 -0.33279609E+001
  0.23038709E+002
  0.59268608E+000
  0.22064967E+002
 -0.32215504E+001
  0.23517145E+002
  0.24292057E+001
  0.29201645E+002
  0.12098133E+002
  0.14721714E+002
 -0.38241348E+002
 -0.39714610E+002
  0.10427003E+001
  0.17915563E+001
  0.30769127E+002
  0.46827639E+002
  0.26983230E+002
 -0.62169816E+001
  0.24776825E+002
 -0.11215561E+001
  0.24504431E+002
  0.86508056E+000
  0.23208485E+002
 -0.19256050E+001
  0.24544431E+002
  0.10932602E+001
  0.29638113E+002
  0.70044515E+001
  0.14999923E+002
 -0.23603158E+002
 -0.24714688E+002
  0.97299534E+000
  0.81856091E+000
  0.27077488E+002
  0.20723147E+002
  0.23657597E+002
 -0.27970910E+001
  0.22649332E+002
 -0.11329133E+000
  0.22929610E+002
  0.58480337E+000
  0.21802107E+002
 -0.79810264E+000
  0.22590109E+002
  0.30525857E+000
  0.26662817E+002
  0.29317436E+001
  0.13579584E+002
 -0.10519925E+002
 -0.11135103E+002
  0.64872544E+000
  0.16983547E+000
  0.17225887E+002
  0.41459856E+001
  0.14985761E+002
 -0.55696483E+000
  0.14823631E+002
  0.48838483E-001
  0.15253043E+002
  0.15539132E+000
  0.14596251E+002
 -0.14131106E+000
  0.14877618E+002
  0.23892066E-001
  0.17257262E+002
  0.55209979E+000
  0.88586096E+001
 -0.21212729E+001
 -0.22764939E+001
  0.16779964E+000
  0.20358333E-002
  0.42656912E+001
  0.48093971E-001
  0.37150864E+001
 -0.63599538E-002
  0.37625785E+001
  0.13463489E-002
  0.39157448E+001
  0.22250323E-002
  0.37758405E+001
 -0.14067937E-002
  0.37998844E+001
 -0.15175484E-003
  0.43459621E+001
  0.60219938E-002
  0.22494345E+001
 -0.24745317E-001
 -0.27059359E-001
  0.20358333E-002
  0.00000000E+000
  0.00000000E+000
  0.50129804E-001
 -0.00000000E+000
  0.00000000E+000
  0.43769850E-001
 -0.00000000E+000
  0.00000000E+000
  0.45116199E-001
 -0.00000000E+000
  0.00000000E+000
  0.47341231E-001
 -0.00000000E+000
  0.00000000E+000
  0.45934438E-001
 -0.00000000E+000
  0.00000000E+000
  0.45782683E-001
 -0.00000000E+000
  0.00000000E+000
  0.51804677E-001
 -0.00000000E+000
  0.00000000E+000
  0.27059359E-001
 -0.00000000E+000
  0.00000000E+000
 -0.00000000E+000
  0.10633772E+003
 -0.10633772E+003
  0.48251395E+002
  0.58086324E+002
  0.19389485E+002
  0.28861910E+002
  0.17378730E+002
  0.20107551E+001
  0.35923587E+002
 -0.18544857E+002
  0.31130226E+002
  0.47933610E+001
  0.22339111E+002
  0.87911149E+001
  0.31191795E+002
 -0.88526840E+001
  0.37451714E+002
 -0.62599192E+001
  0.37451714E+002
  0.00000000E+000
 -0.10633772E+003
  0.00000000E+000
  0.58086324E+002
  0.00000000E+000
  0.28861910E+002
  0.00000000E+000
  0.20107551E+001
  0.00000000E+000
 -0.18544857E+002
  0.00000000E+000
  0.47933610E+001
  0.00000000E+000
  0.87911149E+001
  0.00000000E+000
 -0.88526840E+001
  0.00000000E+000
 -0.62599192E+001
  0.37451714E+002
  0.16945995E+001
 -0.10803232E+003
  0.11167614E+001
  0.58664163E+002
 -0.21576702E+000
  0.30194438E+002
  0.18056585E+001
 -0.10670450E-001
  0.29318999E+001
 -0.19671098E+002
  0.24598582E+001
  0.52654027E+001
  0.14667449E+001
  0.97842282E+001
  0.22233265E+001
 -0.96092657E+001
  0.26368646E+001
 -0.66734573E+001
  0.40088579E+002
  0.16738695E+001
 -0.10970619E+003
  0.10559739E+001
  0.59282058E+002
 -0.68864955E-001
  0.31319277E+002
  0.20128938E+001
 -0.20924292E+001
  0.29845200E+001
 -0.20642724E+002
  0.25227422E+001
  0.57271805E+001
  0.15689689E+001
  0.10738002E+002
  0.23070838E+001
 -0.10347381E+002
  0.26511064E+001
 -0.70174799E+001
  0.42739685E+002
  0.14215351E+001
 -0.11112772E+003
  0.97397706E+000
  0.59729616E+002
  0.74948997E-001
  0.32218305E+002
  0.22549003E+001
 -0.42723805E+001
  0.30791959E+001
 -0.21467020E+002
  0.25802173E+001
  0.62261591E+001
  0.16498703E+001
  0.11668348E+002
  0.23827144E+001
 -0.11080225E+002
  0.26618184E+001
 -0.72965839E+001
  0.45401503E+002
  0.13129184E+001
 -0.11244064E+003
  0.10064808E+001
  0.60036054E+002
  0.37671376E+000
  0.32848072E+002
  0.24961762E+001
 -0.63918429E+001
  0.30924531E+001
 -0.22063297E+002
  0.26212969E+001
  0.66973153E+001
  0.18018780E+001
  0.12487767E+002
  0.25279887E+001
 -0.11806335E+002
  0.26814057E+001
 -0.74500009E+001
  0.48082909E+002
  0.12841358E+001
 -0.11372478E+003
  0.10218390E+001
  0.60298351E+002
  0.66857243E+000
  0.33201339E+002
  0.27242815E+001
 -0.84475520E+001
  0.31058736E+001
 -0.22444889E+002
  0.26295671E+001
  0.71736217E+001
  0.19304997E+001
  0.13186835E+002
  0.26616870E+001
 -0.12537523E+002
  0.26972408E+001
 -0.74855547E+001
  0.50780150E+002
  0.11519653E+001
 -0.11487674E+003
  0.10830052E+001
  0.60367311E+002
  0.10138338E+001
  0.33270510E+002
  0.29061155E+001
 -0.10339834E+002
  0.30168516E+001
 -0.22555625E+002
  0.25732902E+001
  0.76171830E+001
  0.20742879E+001
  0.13685837E+002
  0.28322246E+001
 -0.13295459E+002
  0.27283583E+001
 -0.73816885E+001
  0.53508508E+002
  0.62716214E+000
 -0.11550391E+003
  0.10896381E+001
  0.59904835E+002
  0.13834750E+001
  0.32976673E+002
  0.30181911E+001
 -0.11974550E+002
  0.27747242E+001
 -0.22312158E+002
  0.24218867E+001
  0.79700206E+001
  0.21885717E+001
  0.13919152E+002
  0.29364170E+001
 -0.14043304E+002
  0.26655115E+001
 -0.71107830E+001
  0.56174020E+002
 -0.28959937E+001
 -0.11260791E+003
 -0.48009835E+000
  0.57488939E+002
  0.10877219E+001
  0.31408853E+002
  0.19778335E+001
 -0.12864662E+002
  0.71827404E+000
 -0.21052598E+002
  0.73400206E+000
  0.79542925E+001
  0.12293416E+001
  0.13423813E+002
  0.15715189E+001
 -0.14385482E+002
  0.92866735E+000
 -0.64679314E+001
  0.57102687E+002
 -0.12602314E+002
 -0.10000560E+003
 -0.52290479E+001
  0.50115674E+002
 -0.75883078E+000
  0.26938636E+002
 -0.15209807E+001
 -0.12102512E+002
 -0.48403114E+001
 -0.17733268E+002
 -0.39698689E+001
  0.70838501E+001
 -0.20334040E+001
  0.11487348E+002
 -0.30433522E+001
 -0.13375534E+002
 -0.43170140E+001
 -0.51942696E+001
  0.52785673E+002
 -0.19765346E+002
 -0.80240252E+002
 -0.88862138E+001
  0.39236541E+002
 -0.26267096E+001
  0.20679132E+002
 -0.48235155E+001
 -0.99057057E+001
 -0.93638934E+001
 -0.13192890E+002
 -0.78432373E+001
  0.55631940E+001
 -0.49671768E+001
  0.86112870E+001
 -0.71011572E+001
 -0.11241553E+002
 -0.86556926E+001
 -0.36397342E+001
  0.44129981E+002
 -0.22240400E+002
 -0.57999852E+002
 -0.10510455E+002
  0.27506596E+002
 -0.39498849E+001
  0.14118562E+002
 -0.68456066E+001
 -0.70099840E+001
 -0.11448451E+002
 -0.85900453E+001
 -0.96926403E+001
  0.38073832E+001
 -0.66721349E+001
  0.55907816E+001
 -0.94491412E+001
 -0.84645468E+001
 -0.10904937E+002
 -0.21839384E+001
  0.33225043E+002
 -0.22238158E+002
 -0.35761694E+002
 -0.11071798E+002
  0.16340236E+002
 -0.50772428E+001
  0.81240071E+001
 -0.80530541E+001
 -0.40341727E+001
 -0.12045193E+002
 -0.45979064E+001
 -0.10367287E+002
  0.21294770E+001
 -0.77188607E+001
  0.29423555E+001
 -0.10764720E+002
 -0.54186876E+001
 -0.11897044E+002
 -0.10516144E+001
  0.21328000E+002
 -0.19801747E+002
 -0.15959946E+002
 -0.10431548E+002
  0.69700364E+001
 -0.56400549E+001
  0.33325139E+001
 -0.81041948E+001
 -0.15700328E+001
 -0.11011162E+002
 -0.16909396E+001
 -0.96864267E+001
  0.80474206E+000
 -0.77734533E+001
  0.10293821E+001
 -0.10713530E+002
 -0.24786105E+001
 -0.11444404E+002
 -0.32074043E+000
  0.98835952E+001
 -0.12734296E+002
 -0.32256505E+001
 -0.70919756E+001
  0.13277161E+001
 -0.43707978E+001
  0.61133605E+000
 -0.56838027E+001
 -0.25702784E+000
 -0.71110926E+001
 -0.26364967E+000
 -0.64318326E+001
  0.12548201E+000
 -0.55503317E+001
  0.14788120E+000
 -0.75239556E+001
 -0.50498659E+000
 -0.78048641E+001
 -0.39831881E-001
  0.20787311E+001
 -0.31878192E+001
 -0.37831218E-001
 -0.18745597E+001
  0.14456477E-001
 -0.12697514E+001
  0.65277625E-002
 -0.15248765E+001
 -0.19027177E-002
 -0.17864326E+001
 -0.20935815E-002
 -0.16619089E+001
  0.95830135E-003
 -0.15148379E+001
  0.81028700E-003
 -0.20138719E+001
 -0.59526030E-002
 -0.20534908E+001
 -0.21301071E-003
  0.25240302E-001
 -0.37831218E-001
 -0.00000000E+000
 -0.00000000E+000
 -0.23374740E-001
 -0.00000000E+000
 -0.00000000E+000
 -0.16846978E-001
 -0.00000000E+000
 -0.00000000E+000
 -0.18749696E-001
 -0.00000000E+000
 -0.00000000E+000
 -0.20843277E-001
 -0.00000000E+000
 -0.00000000E+000
 -0.19884976E-001
 -0.00000000E+000
 -0.00000000E+000
 -0.19074689E-001
 -0.00000000E+000
 -0.00000000E+000
 -0.25027292E-001
 -0.00000000E+000
 -0.00000000E+000
 -0.25240302E-001
 -0.00000000E+000
 -0.00000000E+000
  0.00000000E+000
  0.60168888E+002
 -0.60168888E+002
  0.10854302E+003
 -0.48374130E+002
  0.84897822E+002
  0.23645196E+002
  0.94386827E+002
 -0.94890058E+001
  0.10400519E+003
 -0.96183622E+001
  0.10560066E+003
 -0.15954667E+001
  0.99898026E+002
  0.57026308E+001
  0.11298045E+003
 -0.13082427E+002
  0.32854911E+002
  0.80125542E+002
  0.32854911E+002
  0.00000000E+000
 -0.60168888E+002
  0.00000000E+000
 -0.48374130E+002
  0.00000000E+000
  0.23645196E+002
  0.00000000E+000
 -0.94890058E+001
  0.00000000E+000
 -0.96183622E+001
  0.00000000E+000
 -0.15954667E+001
  0.00000000E+000
  0.57026308E+001
  0.00000000E+000
 -0.13082427E+002
  0.00000000E+000
  0.80125542E+002
  0.32854911E+002
 -0.13644040E+001
 -0.58804484E+002
 -0.17435420E+001
 -0.47994992E+002
 -0.26429850E+001
  0.24544639E+002
 -0.18159671E+001
 -0.10316024E+002
 -0.55119985E+000
 -0.10883129E+002
 -0.10494785E+001
 -0.10971881E+001
 -0.20005640E+001
  0.66537164E+001
 -0.17455463E+001
 -0.13337445E+002
 -0.47520183E+000
  0.78855198E+002
  0.32379709E+002
 -0.13898846E+001
 -0.57414600E+002
 -0.17889428E+001
 -0.47595934E+002
 -0.25843091E+001
  0.25340006E+002
 -0.17456412E+001
 -0.11154692E+002
 -0.51995052E+000
 -0.12108820E+002
 -0.11027743E+001
 -0.51436433E+000
 -0.20289421E+001
  0.75798842E+001
 -0.17202699E+001
 -0.13646117E+002
 -0.54725414E+000
  0.77682182E+002
  0.31832455E+002
 -0.14186744E+001
 -0.55995925E+002
 -0.18271392E+001
 -0.47187469E+002
 -0.25183082E+001
  0.26031175E+002
 -0.16729732E+001
 -0.12000027E+002
 -0.52770097E+000
 -0.13254092E+002
 -0.11788652E+001
  0.13679992E+000
 -0.20471715E+001
  0.84481906E+001
 -0.17569523E+001
 -0.13936337E+002
 -0.60881164E+000
  0.76534041E+002
  0.31223643E+002
 -0.14206875E+001
 -0.54575238E+002
 -0.18193734E+001
 -0.46788783E+002
 -0.23913858E+001
  0.26603187E+002
 -0.16298284E+001
 -0.12761584E+002
 -0.63926223E+000
 -0.14244659E+002
 -0.12668876E+001
  0.76442524E+000
 -0.19921328E+001
  0.91734358E+001
 -0.17087849E+001
 -0.14219684E+002
 -0.60742859E+000
  0.75432685E+002
  0.30616215E+002
 -0.14506000E+001
 -0.53124638E+002
 -0.18184543E+001
 -0.46420929E+002
 -0.22574240E+001
  0.27042157E+002
 -0.15816356E+001
 -0.13437372E+002
 -0.74850386E+000
 -0.15077790E+002
 -0.15677516E+001
  0.15836730E+001
 -0.19600528E+001
  0.95657370E+001
 -0.16559344E+001
 -0.14523803E+002
 -0.60607043E+000
  0.74382821E+002
  0.30010144E+002
 -0.14771720E+001
 -0.51647466E+002
 -0.18073547E+001
 -0.46090746E+002
 -0.20989389E+001
  0.27333741E+002
 -0.15466766E+001
 -0.13989635E+002
 -0.88625950E+000
 -0.15738207E+002
 -0.17799275E+001
  0.24773410E+001
 -0.19260392E+001
  0.97118486E+001
 -0.15893747E+001
 -0.14860467E+002
 -0.60316145E+000
  0.73396608E+002
  0.29406983E+002
 -0.15138546E+001
 -0.50133611E+002
 -0.19359266E+001
 -0.45668674E+002
 -0.20075771E+001
  0.27405391E+002
 -0.16190547E+001
 -0.14378157E+002
 -0.11653775E+001
 -0.16191885E+002
 -0.20317160E+001
  0.33436796E+001
 -0.20053873E+001
  0.96855198E+001
 -0.16678422E+001
 -0.15198012E+002
 -0.64603767E+000
  0.72374803E+002
  0.28760945E+002
 -0.30068415E+001
 -0.47126770E+002
 -0.47207272E+001
 -0.43954788E+002
 -0.37978442E+001
  0.26482508E+002
 -0.40482626E+001
 -0.14127739E+002
 -0.43459059E+001
 -0.15894241E+002
 -0.49767692E+001
  0.39745430E+001
 -0.44853409E+001
  0.91940915E+001
 -0.45649217E+001
 -0.15118432E+002
 -0.14880132E+001
  0.69297894E+002
  0.27272932E+002
 -0.68188349E+001
 -0.40307935E+002
 -0.12197779E+002
 -0.38575845E+002
 -0.88416361E+001
  0.23126366E+002
 -0.10544737E+002
 -0.12424638E+002
 -0.12610496E+002
 -0.13828482E+002
 -0.12536655E+002
  0.39007012E+001
 -0.11121388E+002
  0.77788247E+001
 -0.12527415E+002
 -0.13712404E+002
 -0.37148458E+001
  0.60485325E+002
  0.23558086E+002
 -0.91277294E+001
 -0.31180205E+002
 -0.17022088E+002
 -0.30681486E+002
 -0.12027814E+002
  0.18132092E+002
 -0.14779134E+002
 -0.96733181E+001
 -0.17931352E+002
 -0.10676264E+002
 -0.17347197E+002
  0.33165460E+001
 -0.15364989E+002
  0.57966173E+001
 -0.17791989E+002
 -0.11285405E+002
 -0.51326887E+001
  0.47826025E+002
  0.18425397E+002
 -0.94285308E+001
 -0.21751674E+002
 -0.18113224E+002
 -0.21996792E+002
 -0.12637587E+002
  0.12656455E+002
 -0.15700499E+002
 -0.66104064E+001
 -0.19124492E+002
 -0.72522709E+001
 -0.18240085E+002
  0.24321392E+001
 -0.16208555E+002
  0.37650876E+001
 -0.19134557E+002
 -0.83594026E+001
 -0.54301888E+001
  0.34121657E+002
  0.12995209E+002
 -0.88111280E+001
 -0.12940546E+002
 -0.17364621E+002
 -0.13443300E+002
 -0.12134860E+002
  0.74266936E+001
 -0.15020160E+002
 -0.37251056E+001
 -0.18202912E+002
 -0.40695191E+001
 -0.17222675E+002
  0.14519017E+001
 -0.15451635E+002
  0.19940483E+001
 -0.18533877E+002
 -0.52771613E+001
 -0.51786026E+001
  0.20766383E+002
  0.78166061E+001
 -0.73888130E+001
 -0.55517334E+001
 -0.14859403E+002
 -0.59727103E+001
 -0.10531808E+002
  0.30990986E+001
 -0.12815353E+002
 -0.14415602E+001
 -0.15308397E+002
 -0.15764755E+001
 -0.14442329E+002
  0.58583389E+000
 -0.13152417E+002
  0.70413672E+000
 -0.16048524E+002
 -0.23810543E+001
 -0.44178333E+001
  0.91356917E+001
  0.33987728E+001
 -0.44720828E+001
 -0.10796506E+001
 -0.92379513E+001
 -0.12068418E+001
 -0.67130300E+001
  0.57417728E+000
 -0.79160876E+001
 -0.23850265E+000
 -0.92326540E+001
 -0.25990912E+000
 -0.87457936E+001
  0.98973503E-001
 -0.81446344E+001
  0.10297754E+000
 -0.10049450E+002
 -0.47623825E+000
 -0.27284752E+001
  0.18147164E+001
  0.67029763E+000
 -0.10674822E+001
 -0.12168383E-001
 -0.22601309E+001
 -0.14193089E-001
 -0.16920466E+001
  0.60929708E-002
 -0.19286953E+001
 -0.18539712E-002
 -0.21864031E+001
 -0.22012529E-002
 -0.20882739E+001
  0.84422521E-003
 -0.19858451E+001
  0.54879671E-003
 -0.24566168E+001
 -0.54665826E-002
 -0.66265053E+000
  0.20750192E-001
  0.76470951E-002
 -0.12168383E-001
 -0.00000000E+000
 -0.00000000E+000
 -0.26361473E-001
 -0.00000000E+000
 -0.00000000E+000
 -0.20268502E-001
 -0.00000000E+000
 -0.00000000E+000
 -0.22122473E-001
 -0.00000000E+000
 -0.00000000E+000
 -0.24323726E-001
 -0.00000000E+000
 -0.00000000E+000
 -0.23479501E-001
 -0.00000000E+000
 -0.00000000E+000
 -0.22930704E-001
 -0.00000000E+000
 -0.00000000E+000
 -0.28397287E-001
 -0.00000000E+000
 -0.00000000E+000
 -0.76470951E-002
 -0.00000000E+000
 -0.00000000E+000
  0.00000000E+000
  0.68827460E+001
 -0.68827460E+001
 -0.52485030E+000
  0.74075963E+001
  0.12976711E+001
 -0.18225215E+001
  0.61576192E+000
  0.68190923E+000
 -0.77433949E+000
  0.13901014E+001
 -0.16156144E+001
  0.84127496E+000
 -0.26651303E+001
  0.10495159E+001
 -0.36293642E+001
  0.96423391E+000
 -0.54253763E+001
  0.17960121E+001
 -0.54253763E+001
  0.00000000E+000
 -0.68827460E+001
  0.00000000E+000
  0.74075963E+001
  0.00000000E+000
 -0.18225215E+001
  0.00000000E+000
  0.68190923E+000
  0.00000000E+000
  0.13901014E+001
  0.00000000E+000
  0.84127496E+000
  0.00000000E+000
  0.10495159E+001
  0.00000000E+000
  0.96423391E+000
  0.00000000E+000
  0.17960121E+001
 -0.54253763E+001
 -0.86025176E+000
 -0.60224942E+001
  0.50112354E+000
  0.60462210E+001
 -0.32196948E-001
 -0.12892010E+001
  0.54532723E-001
  0.59517956E+000
  0.83943861E-001
  0.13606903E+001
  0.11636443E+000
  0.80885439E+000
  0.16849034E+000
  0.99738996E+000
  0.20980494E+000
  0.92291930E+000