<?xml version="1.0"?>
<VTKFile type="PolyData" version="0.1" byte_order="LittleEndian">
  <PolyData>
    <Piece NumberOfPoints="     10" NumberOfVerts="  0" NumberOfLines="      9"
           NumberOfStrips="  0" NumberOfPolys="      0">
      <Points>
        <DataArray type="Float32" NumberOfComponents="3" format="ascii">
                       0.13891                       0.02750                     113.18127
                      13.34692                     -15.66561                     100.85373
                      22.74372                     -26.80954                      88.71709
                      30.63937                     -36.09731                      76.52236
                      34.51566                     -40.63091                      64.22361
                      34.50559                     -40.58089                      51.96334
                      30.61286                     -35.99896                      39.69014
                      22.72771                     -26.74314                      27.45482
                      13.30575                     -15.66251                      15.26576
                       0.00019                       0.00005                       3.00017
        </DataArray>
      </Points>
      <PointData>
        <DataArray type="Float32" Name="TranslationalVelocity" NumberOfComponents="3" format="ascii">
                       2.55940                       0.56845                      -0.00780
                      29.45552                      24.26071                      -1.45341
                      49.80318                      39.46250                      -0.01393
                      66.65744                      53.11372                       1.01465
                      73.73933                      62.12549                      -0.02950
                      73.57796                      63.14270                      -0.17179
                      66.02241                      55.29341                      -0.75138
                      49.09008                      40.76407                      -0.60517
                      28.36753                      24.10063                       0.13666
                      -0.00030                      -0.00011                       0.00069
        </DataArray>
        <DataArray type="Float32" Name="RotationalVelocity" NumberOfComponents="3" format="ascii">
                      -0.01248                       0.10048                       1.81093
                      -0.05921                       0.08758                       1.81158
                      -0.15634                      -0.08986                       1.76849
                       0.13446                       0.01963                       1.71706
                       0.18970                       0.07524                       1.77856
                      -0.02064                      -0.07572                       1.87739
                      -0.05389                      -0.06260                       1.85489
                       0.03896                       0.06232                       1.81373
                       0.01452                       0.02024                       1.81382
                       0.02279                       0.00384                       1.80167
        </DataArray>
        <DataArray type="Float32" Name="TranslationalAcceleration" NumberOfComponents="3" format="ascii">
                      18.21143                      -3.91642                      -0.30002
                      15.86617                      -0.18205                      -8.92482
                      10.22294                       3.51259                     -11.50495
                      10.83220                     -11.71491                      -3.33306
                       5.77533                      -9.18561                      -3.18958
                       4.37332                       6.05750                      -3.56123
                       9.11672                       7.36468                      -3.14806
                       3.11534                       5.84292                      -3.77288
                       1.74903                      -0.37537                      -2.31701
                      -0.00453                      -0.00230                      -0.07020
        </DataArray>
        <DataArray type="Float32" Name="OrientationX" NumberOfComponents="3" format="ascii">
                       0.94225                      -0.33489                      -0.00413
                       0.65364                      -0.75678                       0.00617
                       0.64244                      -0.76633                      -0.00006
                       0.64078                      -0.76772                      -0.00153
                       0.64750                      -0.76206                       0.00302
                       0.64915                      -0.76066                      -0.00047
                       0.64423                      -0.76482                      -0.00445
                       0.64579                      -0.76352                      -0.00098
                       0.64940                      -0.76045                       0.00000
                       0.64708                      -0.76241                       0.00306
        </DataArray>
        <DataArray type="Float32" Name="OrientationY" NumberOfComponents="3" format="ascii">
                      -0.33490                      -0.94225                      -0.00218
                      -0.75680                      -0.65364                       0.00290
                      -0.76633                      -0.64244                       0.00274
                      -0.76772                      -0.64078                      -0.00073
                      -0.76207                      -0.64750                      -0.00051
                      -0.76066                      -0.64915                      -0.00011
                      -0.76483                      -0.64424                      -0.00025
                      -0.76352                      -0.64579                       0.00039
                      -0.76045                      -0.64940                       0.00002
                      -0.76239                      -0.64709                      -0.00605
        </DataArray>
        <DataArray type="Float32" Name="OrientationZ" NumberOfComponents="3" format="ascii">
                      -0.00316                       0.00344                      -0.99999
                       0.00183                      -0.00657                      -0.99998
                      -0.00214                      -0.00172                      -1.00000
                      -0.00042                       0.00164                      -1.00000
                       0.00234                      -0.00197                      -1.00000
                      -0.00022                       0.00043                      -1.00000
                      -0.00267                       0.00356                      -0.99999
                      -0.00093                       0.00050                      -1.00000
                      -0.00002                      -0.00002                      -1.00000
                       0.00659                       0.00158                      -0.99998
        </DataArray>
      </PointData>
      <Lines>
        <DataArray type="Int32" Name="connectivity" format="ascii">
      0      1
      1      2
      2      3
      3      4
      4      5
      5      6
      6      7
      7      8
      8      9
        </DataArray>
        <DataArray type="Int32" Name="offsets" format="ascii">
      2
      4
      6
      8
     10
     12
     14
     16
     18
        </DataArray>
      </Lines>
    </Piece>
  </PolyData>
</VTKFile>
