# vtk DataFile Version 2.0
BldPointCP.BldB
ASCII
 
DATASET POLYDATA
POINTS 9 double
  0.28707194E+001  0.11192048E+002  0.10625766E+003
  0.66189010E+001  0.27430569E+002  0.94491635E+002
  0.96641208E+001  0.40461070E+002  0.82387258E+002
  0.11713462E+002  0.49141510E+002  0.70124867E+002
  0.12363619E+002  0.51816190E+002  0.58080963E+002
  0.11713982E+002  0.48991397E+002  0.46058402E+002
  0.96527689E+001  0.40315400E+002  0.33769473E+002
  0.65575210E+001  0.27369560E+002  0.21576182E+002
  0.26716565E+001  0.11146203E+002  0.98390711E+001
  
POINT_DATA 9
SCALARS Gamma_LL double
LOOKUP_TABLE default
  0.10803232E+003
  0.49368156E+002
  0.19173718E+002
  0.19184389E+002
  0.38855487E+002
  0.33590084E+002
  0.23805856E+002
  0.33415121E+002
  0.40088579E+002
VECTORS Vind_CP double
 -0.13277142E-001 -0.11052792E+000 -0.46279976E+000
 -0.71076040E-001 -0.15453070E+000 -0.21240067E+000
 -0.45196435E-001 -0.10633779E+000 -0.42968173E-001
 -0.60032289E-001 -0.23364347E+000 -0.18047364E-001
 -0.10506683E+000 -0.46564633E+000  0.28649462E-001
 -0.10990385E+000 -0.39219615E+000  0.11654609E+000
 -0.70747327E-001 -0.20248084E+000  0.11750568E+000
 -0.61355754E-001 -0.18099251E+000  0.17146544E+000
 -0.11662020E+000 -0.68202800E-001  0.11210928E+000
VECTORS Vtot_CP double
  0.34949109E+002 -0.53630752E+001  0.18987714E+000
  0.65562825E+002 -0.12565431E+002  0.60182914E+000
  0.90058336E+002 -0.18900533E+002  0.46611570E-002
  0.10632990E+003 -0.22539560E+002 -0.14020170E+000
  0.11125568E+003 -0.23005714E+002  0.14721566E+000
  0.10582214E+003 -0.21485524E+002  0.36952404E+000
  0.89836963E+002 -0.17851865E+002  0.53029174E+000
  0.66415092E+002 -0.12190666E+002  0.41538328E+000
  0.37162740E+002 -0.48833325E+001  0.12388233E+000
VECTORS Vstr_CP double
 -0.17762386E+002  0.52525473E+001 -0.65267691E+000
 -0.48433901E+002  0.12410900E+002 -0.81422981E+000
 -0.72903532E+002  0.18794196E+002 -0.47629330E-001
 -0.89189928E+002  0.22305916E+002  0.12215433E+000
 -0.94160743E+002  0.22540067E+002 -0.11856620E+000
 -0.88732041E+002  0.21093328E+002 -0.25297795E+000
 -0.72707710E+002  0.17649384E+002 -0.41278605E+000
 -0.49276448E+002  0.12009674E+002 -0.24391784E+000
 -0.20079360E+002  0.48151297E+001 -0.11773055E-001
VECTORS Vwnd_CP double
  0.17200000E+002  0.00000000E+000  0.00000000E+000
  0.17200000E+002  0.00000000E+000  0.00000000E+000
  0.17200000E+002  0.00000000E+000  0.00000000E+000
  0.17200000E+002  0.00000000E+000  0.00000000E+000
  0.17200000E+002  0.00000000E+000  0.00000000E+000
  0.17200000E+002  0.00000000E+000  0.00000000E+000
  0.17200000E+002  0.00000000E+000  0.00000000E+000
  0.17200000E+002  0.00000000E+000  0.00000000E+000
  0.17200000E+002  0.00000000E+000  0.00000000E+000
VECTORS Tangent double
  0.87149112E+000 -0.49040941E+000  0.13556114E-002
  0.96930387E+000 -0.24584234E+000 -0.33987849E-002
  0.97394766E+000 -0.22674854E+000 -0.33259812E-002
  0.97398647E+000 -0.22660295E+000 -0.12095689E-002
  0.97140061E+000 -0.23744638E+000 -0.25522546E-003
  0.97236166E+000 -0.23347947E+000 -0.36613478E-003
  0.97349723E+000 -0.22869872E+000 -0.19578126E-003
  0.97242016E+000 -0.23323598E+000  0.69716547E-004
  0.97206204E+000 -0.23466273E+000  0.53658637E-002
VECTORS Normal double
  0.26102583E+000  0.46619740E+000  0.84529610E+000
  0.15891918E+000  0.61591674E+000  0.77161600E+000
  0.16209022E+000  0.68581532E+000  0.70949567E+000
  0.20522745E+000  0.87982174E+000  0.42871366E+000
  0.23743558E+000  0.97136559E+000 -0.85578183E-002
  0.21007108E+000  0.87555600E+000 -0.43505383E+000
  0.16235649E+000  0.69170201E+000 -0.70369646E+000
  0.14917976E+000  0.62173856E+000 -0.76888657E+000
  0.12471950E+000  0.49699927E+000 -0.85874139E+000
VECTORS Orth double
  0.41517314E+000  0.73631420E+000 -0.53429642E+000
  0.18760252E+000  0.74847051E+000 -0.63607955E+000
  0.15859610E+000  0.69155075E+000 -0.70470195E+000
  0.96083575E-001  0.41780954E+000 -0.90343961E+000
 -0.22799402E-002 -0.82524704E-002 -0.99996335E+000
 -0.10189671E+000 -0.42295275E+000 -0.90040437E+000
 -0.16106990E+000 -0.68501477E+000 -0.71050071E+000
 -0.17928867E+000 -0.74769121E+000 -0.63938520E+000
 -0.19884777E+000 -0.83541913E+000 -0.51238114E+000
