<?xml version="1.0"?>
<VTKFile type="PolyData" version="0.1" byte_order="LittleEndian">
  <PolyData>
    <Piece NumberOfPoints="     10" NumberOfVerts="  0" NumberOfLines="      9"
           NumberOfStrips="  0" NumberOfPolys="      0">
      <Points>
        <DataArray type="Float32" NumberOfComponents="3" format="ascii">
                       0.23588                      -0.04502                     101.06353
                       1.99412                      -1.58818                     101.03636
                       3.75181                      -3.13199                     101.00740
                       5.50921                      -4.67612                     100.97755
                       7.26613                      -6.22079                     100.94747
                       9.02402                      -7.76529                     100.92089
                      10.78228                      -9.30845                     100.89547
                      12.53975                     -10.85253                     100.87298
                      14.29628                     -12.39766                     100.85299
                      16.05122                     -13.94463                     100.84216
        </DataArray>
      </Points>
      <PointData>
        <DataArray type="Float32" Name="TranslationalVelocity" NumberOfComponents="3" format="ascii">
                       1.93732                       0.31895                      -0.00319
                       4.74790                       3.52259                      -0.24479
                       7.56524                       6.73179                      -0.49258
                      10.38763                       9.94567                      -0.74050
                      13.21449                      13.16259                      -0.98266
                      16.04791                      16.38540                      -1.21272
                      18.87646                      19.60885                      -1.42478
                      21.70717                      22.83078                      -1.61437
                      24.53910                      26.04969                      -1.77659
                      27.37330                      29.26340                      -1.90650
        </DataArray>
        <DataArray type="Float32" Name="RotationalVelocity" NumberOfComponents="3" format="ascii">
                       0.06993                       0.07303                       1.81878
                       0.06414                       0.08288                       1.82230
                       0.05666                       0.09160                       1.82543
                       0.04777                       0.09869                       1.82798
                       0.03752                       0.10421                       1.82996
                       0.01317                       0.11079                       1.83219
                      -0.00079                       0.11199                       1.83247
                      -0.01585                       0.11188                       1.83219
                      -0.03205                       0.11035                       1.83136
                      -0.04925                       0.10761                       1.83000
        </DataArray>
        <DataArray type="Float32" Name="TranslationalAcceleration" NumberOfComponents="3" format="ascii">
                       9.55690                      -6.26836                      -0.06315
                       8.84013                      -5.39391                      -0.06657
                       8.38814                      -4.70765                      -0.06964
                       7.94904                      -3.99873                      -0.09208
                       7.52526                      -3.26695                      -0.16304
                      12.63942                      -6.93119                      -0.37440
                      12.25121                      -6.15422                      -0.82257
                      11.87316                      -5.36137                      -1.40159
                      11.52361                      -4.55968                      -2.18564
                      11.19152                      -3.74872                      -3.24786
        </DataArray>
        <DataArray type="Float32" Name="OrientationX" NumberOfComponents="3" format="ascii">
                       0.00680                      -0.00453                       0.99997
                       0.00760                      -0.00557                       0.99996
                       0.00832                      -0.00647                       0.99994
                       0.00896                      -0.00722                       0.99993
                       0.00951                      -0.00782                       0.99992
                       0.01028                      -0.00851                       0.99991
                       0.01044                      -0.00853                       0.99991
                       0.01046                      -0.00834                       0.99991
                       0.00504                      -0.00227                       0.99998
                      -0.00473                       0.01128                       0.99993
        </DataArray>
        <DataArray type="Float32" Name="OrientationY" NumberOfComponents="3" format="ascii">
                      -0.65522                      -0.75544                       0.00103
                      -0.65575                      -0.75497                       0.00078
                      -0.65647                      -0.75435                       0.00058
                      -0.65740                      -0.75354                       0.00045
                      -0.65856                      -0.75253                       0.00037
                      -0.66163                      -0.74983                       0.00042
                      -0.66367                      -0.74802                       0.00055
                      -0.66603                      -0.74593                       0.00074
                      -0.66943                      -0.74287                       0.00169
                      -0.64500                      -0.76416                       0.00557
        </DataArray>
        <DataArray type="Float32" Name="OrientationZ" NumberOfComponents="3" format="ascii">
                       0.75541                      -0.65520                      -0.00811
                       0.75494                      -0.65573                      -0.00939
                       0.75430                      -0.65644                      -0.01052
                       0.75349                      -0.65736                      -0.01150
                       0.75247                      -0.65851                      -0.01231
                       0.74976                      -0.66158                      -0.01333
                       0.74795                      -0.66362                      -0.01347
                       0.74585                      -0.66598                      -0.01336
                       0.74286                      -0.66943                      -0.00526
                       0.76417                      -0.64493                       0.01089
        </DataArray>
      </PointData>
      <Lines>
        <DataArray type="Int32" Name="connectivity" format="ascii">
      0      1
      1      2
      2      3
      3      4
      4      5
      5      6
      6      7
      7      8
      8      9
        </DataArray>
        <DataArray type="Int32" Name="offsets" format="ascii">
      2
      4
      6
      8
     10
     12
     14
     16
     18
        </DataArray>
      </Lines>
    </Piece>
  </PolyData>
</VTKFile>
