# vtk DataFile Version 2.0

ASCII
 
DATASET POLYDATA
POINTS 190 double
  0.34926978E+000  0.77832587E-001  0.11318060E+003
  0.45511763E+001  0.20097878E+002  0.10075574E+003
  0.75917552E+001  0.34415459E+002  0.88702542E+002
  0.10169086E+002  0.46376904E+002  0.76565883E+002
  0.11415859E+002  0.52093660E+002  0.64212900E+002
  0.11424344E+002  0.51973947E+002  0.51947130E+002
  0.10172384E+002  0.46166284E+002  0.39640704E+002
  0.75696055E+001  0.34318666E+002  0.27390518E+002
  0.44295892E+001  0.20069220E+002  0.15262628E+002
  0.15741017E-003  0.26351259E-004  0.30001956E+001
  0.36595312E+001 -0.29703568E+001  0.11320726E+003
  0.88352965E+001  0.19042374E+002  0.10074232E+003
  0.10615816E+002  0.33748063E+002  0.88687229E+002
  0.12573992E+002  0.45881207E+002  0.76559560E+002
  0.13618179E+002  0.51605489E+002  0.64212190E+002
  0.13665884E+002  0.51460311E+002  0.51946422E+002
  0.12715159E+002  0.45622401E+002  0.39639378E+002
  0.10917125E+002  0.33591359E+002  0.27390496E+002
  0.88211739E+001  0.19087393E+002  0.15263191E+002
  0.43934780E+001 -0.97265770E+000  0.30513817E+001
  0.37466577E+001 -0.30307667E+001  0.11319158E+003
  0.93323477E+001  0.18881099E+002  0.10073859E+003
  0.11388964E+002  0.33544158E+002  0.88691581E+002
  0.13574118E+002  0.45627838E+002  0.76557166E+002
  0.14724994E+002  0.51338685E+002  0.64212736E+002
  0.14767457E+002  0.51202183E+002  0.51948941E+002
  0.13707039E+002  0.45380166E+002  0.39644448E+002
  0.11690467E+002  0.33383058E+002  0.27397776E+002
  0.93338660E+001  0.18921379E+002  0.15267344E+002
  0.45460249E+001 -0.10502156E+001  0.30543326E+001
  0.38268201E+001 -0.31002583E+001  0.11318513E+003
  0.98277235E+001  0.18714325E+002  0.10073509E+003
  0.12158234E+002  0.33327294E+002  0.88694570E+002
  0.14568315E+002  0.45357110E+002  0.76553183E+002
  0.15825932E+002  0.51053612E+002  0.64213052E+002
  0.15863561E+002  0.50925865E+002  0.51952015E+002
  0.14693676E+002  0.45121175E+002  0.39651295E+002
  0.12459433E+002  0.33162367E+002  0.27406902E+002
  0.98435221E+001  0.18749265E+002  0.15271502E+002
  0.46971200E+001 -0.11275529E+001  0.30607690E+001
  0.39108838E+001 -0.31620190E+001  0.11317071E+003
  0.10320818E+002  0.18539711E+002  0.10072864E+003
  0.12923494E+002  0.33097945E+002  0.88696522E+002
  0.15555619E+002  0.45067367E+002  0.76546721E+002
  0.16920067E+002  0.50748890E+002  0.64212066E+002
  0.16953758E+002  0.50631198E+002  0.51955752E+002
  0.15674767E+002  0.44845500E+002  0.39659867E+002
  0.13223914E+002  0.32929700E+002  0.27417395E+002
  0.10350101E+002  0.18571261E+002  0.15276023E+002
  0.48470271E+001 -0.12042274E+001  0.30666460E+001
  0.39934456E+001 -0.32253818E+001  0.11316352E+003
  0.10812651E+002  0.18360982E+002  0.10072360E+003
  0.13684485E+002  0.32856199E+002  0.88697092E+002
  0.16536377E+002  0.44761696E+002  0.76539143E+002
  0.18007702E+002  0.50427169E+002  0.64211091E+002
  0.18037936E+002  0.50318888E+002  0.51960275E+002
  0.16650009E+002  0.44553180E+002  0.39669917E+002
  0.13983859E+002  0.32685533E+002  0.27428716E+002
  0.10852536E+002  0.18384076E+002  0.15284496E+002
  0.49953486E+001 -0.12812896E+001  0.30694762E+001
  0.40775117E+001 -0.32857276E+001  0.11316234E+003
  0.11303789E+002  0.18179466E+002  0.10072365E+003
  0.14439913E+002  0.32598472E+002  0.88692607E+002
  0.17510104E+002  0.44439673E+002  0.76529542E+002
  0.19088129E+002  0.50087456E+002  0.64210161E+002
  0.19116109E+002  0.49989893E+002  0.51964671E+002
  0.17619470E+002  0.44245085E+002  0.39681717E+002
  0.14738461E+002  0.32427923E+002  0.27443102E+002
  0.11352832E+002  0.18194887E+002  0.15289116E+002
  0.51421406E+001 -0.13582806E+001  0.30719814E+001
  0.41626320E+001 -0.33430842E+001  0.11315759E+003
  0.11793351E+002  0.17992517E+002  0.10072415E+003
  0.15191320E+002  0.32331359E+002  0.88689579E+002
  0.18476413E+002  0.44102045E+002  0.76519008E+002
  0.20160778E+002  0.49729421E+002  0.64208095E+002
  0.20186514E+002  0.49640124E+002  0.51970655E+002
  0.18582766E+002  0.43921615E+002  0.39693757E+002
  0.15488154E+002  0.32159172E+002  0.27458414E+002
  0.11850009E+002  0.18000564E+002  0.15292998E+002
  0.52880776E+001 -0.14339416E+001  0.30740538E+001
  0.42468851E+001 -0.34010724E+001  0.11315212E+003
  0.12281514E+002  0.17801058E+002  0.10072957E+003
  0.15938867E+002  0.32055588E+002  0.88689148E+002
  0.19435220E+002  0.43749334E+002  0.76507532E+002
  0.21227454E+002  0.49359349E+002  0.64206471E+002
  0.21252118E+002  0.49279399E+002  0.51975396E+002
  0.19540039E+002  0.43583320E+002  0.39705974E+002
  0.16234006E+002  0.31883025E+002  0.27469793E+002
  0.12344112E+002  0.17801365E+002  0.15296259E+002
  0.54318986E+001 -0.15106434E+001  0.30752932E+001
  0.43317122E+001 -0.34576493E+001  0.11314558E+003
  0.12767921E+002  0.17604441E+002  0.10073920E+003
  0.16681572E+002  0.31769161E+002  0.88688536E+002
  0.20387386E+002  0.43385065E+002  0.76497028E+002
  0.22287276E+002  0.48975787E+002  0.64205160E+002
  0.22311778E+002  0.48905118E+002  0.51979288E+002
  0.20492579E+002  0.43234765E+002  0.39715379E+002
  0.16975328E+002  0.31597622E+002  0.27479451E+002
  0.12835131E+002  0.17597499E+002  0.15298599E+002
  0.55748003E+001 -0.15861661E+001  0.30763780E+001
  0.44207595E+001 -0.35070495E+001  0.11314159E+003
  0.13252431E+002  0.17403166E+002  0.10075793E+003
  0.17419785E+002  0.31473540E+002  0.88688975E+002
  0.21332706E+002  0.43009333E+002  0.76487347E+002
  0.23341876E+002  0.48583751E+002  0.64204539E+002
  0.23366297E+002  0.48519573E+002  0.51982358E+002
  0.21439795E+002  0.42875226E+002  0.39722694E+002
  0.17712186E+002  0.31303632E+002  0.27486552E+002
  0.13323221E+002  0.17389161E+002  0.15298932E+002
  0.57167012E+001 -0.16608531E+001  0.30781993E+001
  0.45087247E+001 -0.35586119E+001  0.11313825E+003
  0.13734683E+002  0.17196743E+002  0.10078289E+003
  0.18152943E+002  0.31168092E+002  0.88689697E+002
  0.22271097E+002  0.42622465E+002  0.76478173E+002
  0.24391398E+002  0.48183815E+002  0.64205042E+002
  0.24417946E+002  0.48130240E+002  0.51983024E+002
  0.22380757E+002  0.42502153E+002  0.39729503E+002
  0.18444050E+002  0.31000182E+002  0.27492396E+002
  0.13808160E+002  0.17176476E+002  0.15297066E+002
  0.58581433E+001 -0.17339182E+001  0.30747407E+001
  0.45986166E+001 -0.36073457E+001  0.11313012E+003
  0.14214421E+002  0.16985093E+002  0.10081360E+003
  0.18881205E+002  0.30854146E+002  0.88691266E+002
  0.23203104E+002  0.42226148E+002  0.76471137E+002
  0.25435476E+002  0.47775101E+002  0.64206212E+002
  0.25464334E+002  0.47730454E+002  0.51982244E+002
  0.23316924E+002  0.42121062E+002  0.39732215E+002
  0.19171095E+002  0.30688335E+002  0.27495567E+002
  0.14289897E+002  0.16959360E+002  0.15292394E+002
  0.59983980E+001 -0.18066912E+001  0.30710806E+001
  0.46887511E+001 -0.36557956E+001  0.11311691E+003
  0.14691676E+002  0.16768691E+002  0.10084867E+003
  0.19604297E+002  0.30531954E+002  0.88693877E+002
  0.24128919E+002  0.41821752E+002  0.76466949E+002
  0.26475052E+002  0.47361215E+002  0.64209633E+002
  0.26507106E+002  0.47325993E+002  0.51977793E+002
  0.24247634E+002  0.41730857E+002  0.39730307E+002
  0.19893678E+002  0.30369553E+002  0.27494621E+002
  0.14768224E+002  0.16737617E+002  0.15285239E+002
  0.61386174E+001 -0.18769504E+001  0.30676521E+001
  0.47813592E+001 -0.37014911E+001  0.11310683E+003
  0.15165703E+002  0.16545851E+002  0.10088154E+003
  0.20322206E+002  0.30202520E+002  0.88698067E+002
  0.25048727E+002  0.41409776E+002  0.76466164E+002
  0.27506924E+002  0.46933668E+002  0.64214001E+002
  0.27542128E+002  0.46906255E+002  0.51972173E+002
  0.25172096E+002  0.41330622E+002  0.39725486E+002
  0.20610849E+002  0.30042066E+002  0.27491613E+002
  0.15242878E+002  0.16510882E+002  0.15275873E+002
  0.62760535E+001 -0.19498454E+001  0.30633478E+001
  0.48748652E+001 -0.37482965E+001  0.11310362E+003
  0.15636124E+002  0.16316319E+002  0.10091123E+003
  0.21034196E+002  0.29865101E+002  0.88701378E+002
  0.25961202E+002  0.40987116E+002  0.76466793E+002
  0.28528528E+002  0.46486805E+002  0.64217441E+002
  0.28566379E+002  0.46465260E+002  0.51967106E+002
  0.26088030E+002  0.40915841E+002  0.39720011E+002
  0.21322134E+002  0.29705556E+002  0.27487257E+002
  0.15713479E+002  0.16278711E+002  0.15265462E+002
  0.64123542E+001 -0.20220372E+001  0.30593386E+001
  0.49746013E+001 -0.37844256E+001  0.11308991E+003
  0.16102630E+002  0.16080330E+002  0.10093461E+003
  0.21739443E+002  0.29518935E+002  0.88703189E+002
  0.26865678E+002  0.40552107E+002  0.76467946E+002
  0.29537875E+002  0.46017041E+002  0.64219617E+002
  0.29577262E+002  0.45998566E+002  0.51963355E+002
  0.26994111E+002  0.40484428E+002  0.39715441E+002
  0.22026061E+002  0.29357581E+002  0.27485014E+002
  0.16178268E+002  0.16037883E+002  0.15258222E+002
  0.65472093E+001 -0.20938433E+001  0.30553576E+001
  0.50724864E+001 -0.38284809E+001  0.11307830E+003
  0.16564548E+002  0.15838439E+002  0.10095106E+003
  0.22439247E+002  0.29167043E+002  0.88705827E+002
  0.27762398E+002  0.40104921E+002  0.76469054E+002
  0.30534923E+002  0.45525444E+002  0.64220363E+002
  0.30574040E+002  0.45506047E+002  0.51961559E+002
  0.27890640E+002  0.40037422E+002  0.39712239E+002
  0.22724153E+002  0.29002366E+002  0.27481074E+002
  0.16639196E+002  0.15793646E+002  0.15248683E+002
  0.66805625E+001 -0.21653691E+001  0.30527940E+001
  0.51737041E+001 -0.38683362E+001  0.11307197E+003
  0.17021909E+002  0.15591549E+002  0.10096028E+003
  0.23134332E+002  0.28809772E+002  0.88709716E+002
  0.28652750E+002  0.39648535E+002  0.76470522E+002
  0.31521370E+002  0.45016061E+002  0.64220218E+002
  0.31560675E+002  0.44997070E+002  0.51961379E+002
  0.28780060E+002  0.39579685E+002  0.39709746E+002
  0.23417046E+002  0.28641183E+002  0.27475611E+002
  0.17095254E+002  0.15544040E+002  0.15241645E+002
  0.68129710E+001 -0.22357778E+001  0.30515176E+001
  
POLYGONS 162 810
      4      0      1     11     10
      4      1      2     12     11
      4      2      3     13     12
      4      3      4     14     13
      4      4      5     15     14
      4      5      6     16     15
      4      6      7     17     16
      4      7      8     18     17
      4      8      9     19     18
      4     10     11     21     20
      4     11     12     22     21
      4     12     13     23     22
      4     13     14     24     23
      4     14     15     25     24
      4     15     16     26     25
      4     16     17     27     26
      4     17     18     28     27
      4     18     19     29     28
      4     20     21     31     30
      4     21     22     32     31
      4     22     23     33     32
      4     23     24     34     33
      4     24     25     35     34
      4     25     26     36     35
      4     26     27     37     36
      4     27     28     38     37
      4     28     29     39     38
      4     30     31     41     40
      4     31     32     42     41
      4     32     33     43     42
      4     33     34     44     43
      4     34     35     45     44
      4     35     36     46     45
      4     36     37     47     46
      4     37     38     48     47
      4     38     39     49     48
      4     40     41     51     50
      4     41     42     52     51
      4     42     43     53     52
      4     43     44     54     53
      4     44     45     55     54
      4     45     46     56     55
      4     46     47     57     56
      4     47     48     58     57
      4     48     49     59     58
      4     50     51     61     60
      4     51     52     62     61
      4     52     53     63     62
      4     53     54     64     63
      4     54     55     65     64
      4     55     56     66     65
      4     56     57     67     66
      4     57     58     68     67
      4     58     59     69     68
      4     60     61     71     70
      4     61     62     72     71
      4     62     63     73     72
      4     63     64     74     73
      4     64     65     75     74
      4     65     66     76     75
      4     66     67     77     76
      4     67     68     78     77
      4     68     69     79     78
      4     70     71     81     80
      4     71     72     82     81
      4     72     73     83     82
      4     73     74     84     83
      4     74     75     85     84
      4     75     76     86     85
      4     76     77     87     86
      4     77     78     88     87
      4     78     79     89     88
      4     80     81     91     90
      4     81     82     92     91
      4     82     83     93     92
      4     83     84     94     93
      4     84     85     95     94
      4     85     86     96     95
      4     86     87     97     96
      4     87     88     98     97
      4     88     89     99     98
      4     90     91    101    100
      4     91     92    102    101
      4     92     93    103    102
      4     93     94    104    103
      4     94     95    105    104
      4     95     96    106    105
      4     96     97    107    106
      4     97     98    108    107
      4     98     99    109    108
      4    100    101    111    110
      4    101    102    112    111
      4    102    103    113    112
      4    103    104    114    113
      4    104    105    115    114
      4    105    106    116    115
      4    106    107    117    116
      4    107    108    118    117
      4    108    109    119    118
      4    110    111    121    120
      4    111    112    122    121
      4    112    113    123    122
      4    113    114    124    123
      4    114    115    125    124
      4    115    116    126    125
      4    116    117    127    126
      4    117    118    128    127
      4    118    119    129    128
      4    120    121    131    130
      4    121    122    132    131
      4    122    123    133    132
      4    123    124    134    133
      4    124    125    135    134
      4    125    126    136    135
      4    126    127    137    136
      4    127    128    138    137
      4    128    129    139    138
      4    130    131    141    140
      4    131    132    142    141
      4    132    133    143    142
      4    133    134    144    143
      4    134    135    145    144
      4    135    136    146    145
      4    136    137    147    146
      4    137    138    148    147
      4    138    139    149    148
      4    140    141    151    150
      4    141    142    152    151
      4    142    143    153    152
      4    143    144    154    153
      4    144    145    155    154
      4    145    146    156    155
      4    146    147    157    156
      4    147    148    158    157
      4    148    149    159    158
      4    150    151    161    160
      4    151    152    162    161
      4    152    153    163    162
      4    153    154    164    163
      4    154    155    165    164
      4    155    156    166    165
      4    156    157    167    166
      4    157    158    168    167
      4    158    159    169    168
      4    160    161    171    170
      4    161    162    172    171
      4    162    163    173    172
      4    163    164    174    173
      4    164    165    175    174
      4    165    166    176    175
      4    166    167    177    176
      4    167    168    178    177
      4    168    169    179    178
      4    170    171    181    180
      4    171    172    182    181
      4    172    173    183    182
      4    173    174    184    183
      4    174    175    185    184
      4    175    176    186    185
      4    176    177    187    186
      4    177    178    188    187
      4    178    179    189    188
  
CELL_DATA 162
SCALARS Gamma double
LOOKUP_TABLE default
  0.10633772E+003
  0.48251395E+002
  0.19389485E+002
  0.17378730E+002
  0.35923587E+002
  0.31130226E+002
  0.22339111E+002
  0.31191795E+002
  0.37451714E+002
  0.10633772E+003
  0.48251395E+002
  0.19389485E+002
  0.17378730E+002
  0.35923587E+002
  0.31130226E+002
  0.22339111E+002
  0.31191795E+002
  0.37451714E+002
  0.10803232E+003
  0.49368156E+002
  0.19173718E+002
  0.19184389E+002
  0.38855487E+002
  0.33590084E+002
  0.23805856E+002
  0.33415121E+002
  0.40088579E+002
  0.10970619E+003
  0.50424130E+002
  0.19104853E+002
  0.21197282E+002
  0.41840007E+002
  0.36112826E+002
  0.25374825E+002
  0.35722205E+002
  0.42739685E+002
  0.11112772E+003
  0.51398107E+002
  0.19179802E+002
  0.23452183E+002
  0.44919203E+002
  0.38693043E+002
  0.27024695E+002
  0.38104920E+002
  0.45401503E+002
  0.11244064E+003
  0.52404588E+002
  0.19556516E+002
  0.25948359E+002
  0.48011656E+002
  0.41314340E+002
  0.28826573E+002
  0.40632908E+002
  0.48082909E+002
  0.11372478E+003
  0.53426427E+002
  0.20225088E+002
  0.28672640E+002
  0.51117529E+002
  0.43943908E+002
  0.30757073E+002
  0.43294595E+002
  0.50780150E+002
  0.11487674E+003
  0.54509432E+002
  0.21238922E+002
  0.31578756E+002
  0.54134381E+002
  0.46517198E+002
  0.32831361E+002
  0.46126820E+002
  0.53508508E+002
  0.11550391E+003
  0.55599070E+002
  0.22622397E+002
  0.34596947E+002
  0.56909105E+002
  0.48939084E+002
  0.35019932E+002
  0.49063237E+002
  0.56174020E+002
  0.11260791E+003
  0.55118972E+002
  0.23710119E+002
  0.36574781E+002
  0.57627379E+002
  0.49673087E+002
  0.36249274E+002
  0.50634756E+002
  0.57102687E+002
  0.10000560E+003
  0.49889924E+002
  0.22951288E+002
  0.35053800E+002
  0.52787068E+002
  0.45703218E+002
  0.34215870E+002
  0.47591404E+002
  0.52785673E+002
  0.80240252E+002
  0.41003710E+002
  0.20324579E+002
  0.30230284E+002
  0.43423174E+002
  0.37859980E+002
  0.29248693E+002
  0.40490246E+002
  0.44129981E+002
  0.57999852E+002
  0.30493256E+002
  0.16374694E+002
  0.23384678E+002
  0.31974723E+002
  0.28167340E+002
  0.22576558E+002
  0.31041105E+002
  0.33225043E+002
  0.35761694E+002
  0.19421458E+002
  0.11297451E+002
  0.15331624E+002
  0.19929530E+002
  0.17800053E+002
  0.14857698E+002
  0.20276385E+002
  0.21328000E+002
  0.15959946E+002
  0.89899100E+001
  0.56573961E+001
  0.72274289E+001
  0.89183685E+001
  0.81136264E+001
  0.70842443E+001
  0.95628548E+001
  0.98835952E+001
  0.32256505E+001
  0.18979344E+001
  0.12865983E+001
  0.15436262E+001
  0.18072758E+001
  0.16817938E+001
  0.15339126E+001
  0.20388992E+001
  0.20787311E+001
  0.37831218E-001
  0.23374740E-001
  0.16846978E-001
  0.18749696E-001
  0.20843277E-001
  0.19884976E-001
  0.19074689E-001
  0.25027292E-001
  0.25240302E-001
  0.00000000E+000
  0.00000000E+000
  0.00000000E+000
  0.00000000E+000
  0.00000000E+000
  0.00000000E+000
  0.00000000E+000
  0.00000000E+000
  0.00000000E+000
POINT_DATA 190
VECTORS Uconv double
  0.00000000E+000  0.00000000E+000  0.00000000E+000
  0.00000000E+000  0.00000000E+000  0.00000000E+000
  0.00000000E+000  0.00000000E+000  0.00000000E+000
  0.00000000E+000  0.00000000E+000  0.00000000E+000
  0.00000000E+000  0.00000000E+000  0.00000000E+000
  0.00000000E+000  0.00000000E+000  0.00000000E+000
  0.00000000E+000  0.00000000E+000  0.00000000E+000
  0.00000000E+000  0.00000000E+000  0.00000000E+000
  0.00000000E+000  0.00000000E+000  0.00000000E+000
  0.00000000E+000  0.00000000E+000  0.00000000E+000
  0.00000000E+000  0.00000000E+000  0.00000000E+000
  0.00000000E+000  0.00000000E+000  0.00000000E+000
  0.00000000E+000  0.00000000E+000  0.00000000E+000
  0.00000000E+000  0.00000000E+000  0.00000000E+000
  0.00000000E+000  0.00000000E+000  0.00000000E+000
  0.00000000E+000  0.00000000E+000  0.00000000E+000
  0.00000000E+000  0.00000000E+000  0.00000000E+000
  0.00000000E+000  0.00000000E+000  0.00000000E+000
  0.00000000E+000  0.00000000E+000  0.00000000E+000
  0.00000000E+000  0.00000000E+000  0.00000000E+000
  0.17451627E+002  0.58282291E+000 -0.13056186E+001
  0.16969306E+002 -0.55066794E+000 -0.16232991E+001
  0.17072747E+002 -0.28874399E+000 -0.33583726E+000
  0.17106575E+002 -0.17113315E+000 -0.45492105E-001
  0.17030165E+002 -0.40712798E+000 -0.34671177E-001
  0.16980788E+002 -0.57823656E+000  0.12611252E+000
  0.17040238E+002 -0.38380363E+000  0.18865457E+000
  0.17057191E+002 -0.32246016E+000  0.33264252E+000
  0.17026998E+002 -0.40372188E+000  0.38621915E+000
  0.17062952E+002  0.96480274E-001  0.64011239E+000
  0.17079627E+002  0.10392637E-001 -0.80760728E+000
  0.16973859E+002 -0.54539369E+000 -0.16171212E+001
  0.17066577E+002 -0.30701570E+000 -0.35748325E+000
  0.17092126E+002 -0.22285557E+000 -0.74589408E-001
  0.16993595E+002 -0.53730246E+000 -0.54776419E-001
  0.16935434E+002 -0.73451157E+000  0.15755235E+000
  0.17015660E+002 -0.46663257E+000  0.23862005E+000
  0.17045764E+002 -0.35489596E+000  0.37014089E+000
  0.17023019E+002 -0.40542088E+000  0.38709765E+000
  0.17070256E+002  0.10769395E+000  0.62498864E+000
  0.17057683E+002 -0.21165387E-001 -0.85899885E+000
  0.16995239E+002 -0.50357584E+000 -0.16023392E+001
  0.17061056E+002 -0.32310192E+000 -0.37659814E+000
  0.17075161E+002 -0.28024807E+000 -0.10828092E+000
  0.16949761E+002 -0.68583486E+000 -0.78609803E-001
  0.16881618E+002 -0.91127245E+000  0.19194082E+000
  0.16989252E+002 -0.55234102E+000  0.29327086E+000
  0.17034342E+002 -0.38656628E+000  0.40693677E+000
  0.17021457E+002 -0.40404864E+000  0.41432524E+000
  0.17075079E+002  0.11421880E+000  0.61426942E+000
  0.17041121E+002 -0.43386065E-001 -0.90624780E+000
  0.17008152E+002 -0.48782525E+000 -0.16259562E+001
  0.17056798E+002 -0.33559535E+000 -0.39147615E+000
  0.17057496E+002 -0.33768343E+000 -0.14044378E+000
  0.16924013E+002 -0.77567860E+000 -0.10688423E+000
  0.16822628E+002 -0.10957773E+001  0.22633806E+000
  0.16962303E+002 -0.63633540E+000  0.34576509E+000
  0.17023813E+002 -0.41517989E+000  0.44038808E+000
  0.17021304E+002 -0.39896978E+000  0.42238460E+000
  0.17077323E+002  0.11578431E+000  0.61663123E+000
  0.17123623E+002  0.58584660E-001 -0.53975787E+000
  0.17033311E+002 -0.44468839E+000 -0.15979050E+001
  0.17035600E+002 -0.41247196E+000 -0.46847869E+000
  0.17019178E+002 -0.46707485E+000 -0.25010142E+000
  0.16881764E+002 -0.90769981E+000 -0.13057007E+000
  0.16816631E+002 -0.11229857E+001  0.25671595E+000
  0.16912500E+002 -0.80279910E+000  0.48854834E+000
  0.16990615E+002 -0.52534110E+000  0.55283826E+000
  0.17023680E+002 -0.38892930E+000  0.43181702E+000
  0.17090185E+002  0.13737475E+000  0.60746715E+000
  0.17127795E+002  0.68972734E-001 -0.53746079E+000
  0.17054569E+002 -0.41690763E+000 -0.15891218E+001
  0.17037078E+002 -0.40813677E+000 -0.46341416E+000
  0.17005624E+002 -0.50583372E+000 -0.27479015E+000
  0.16823994E+002 -0.10940486E+001 -0.19081377E+000
  0.16740274E+002 -0.13723967E+001  0.35151424E+000
  0.16894560E+002 -0.85145711E+000  0.52208080E+000
  0.16986556E+002 -0.53322094E+000  0.56293484E+000
  0.17028331E+002 -0.37471784E+000  0.43855777E+000
  0.17108601E+002  0.16946903E+000  0.60517495E+000
  0.17132111E+002  0.79449915E-001 -0.53554077E+000
  0.17078659E+002 -0.38671286E+000 -0.15907231E+001
  0.17051511E+002 -0.37290876E+000 -0.41929172E+000
  0.16978678E+002 -0.59394633E+000 -0.31919490E+000
  0.16807683E+002 -0.11362786E+001 -0.19791417E+000
  0.16729076E+002 -0.13917789E+001  0.34881331E+000
  0.16854157E+002 -0.98501328E+000  0.59192945E+000
  0.16987596E+002 -0.52805095E+000  0.56602424E+000
  0.17035766E+002 -0.35581718E+000  0.44184470E+000
  0.17073416E+002  0.99618323E-001  0.57043148E+000
  0.17136382E+002  0.90012937E-001 -0.53413686E+000
  0.17097304E+002 -0.35882629E+000 -0.15313742E+001
  0.17061541E+002 -0.34853337E+000 -0.39019041E+000
  0.16984521E+002 -0.57721583E+000 -0.30937993E+000
  0.16812359E+002 -0.11196270E+001 -0.18875651E+000
  0.16741294E+002 -0.13461494E+001  0.33099237E+000
  0.16867849E+002 -0.93990832E+000  0.56726587E+000
  0.16994613E+002 -0.50934683E+000  0.54311859E+000
  0.17045477E+002 -0.33283010E+000  0.44697726E+000
  0.17078833E+002  0.10719845E+000  0.55775156E+000
  0.17160761E+002  0.16264307E+000 -0.91994817E+000
  0.17115676E+002 -0.32619260E+000 -0.13329930E+001
  0.17076224E+002 -0.31387447E+000 -0.34868029E+000
  0.17002239E+002 -0.53343919E+000 -0.28150576E+000
  0.16842123E+002 -0.10358999E+001 -0.17543480E+000
  0.16782559E+002 -0.12243945E+001  0.29597165E+000
  0.16897521E+002 -0.85499008E+000  0.51304552E+000
  0.17008100E+002 -0.47583495E+000  0.50383802E+000
  0.17060746E+002 -0.30771736E+000  0.43317431E+000
  0.17080696E+002  0.10787232E+000  0.55253064E+000
  0.17155520E+002  0.15499535E+000 -0.85178919E+000
  0.17129743E+002 -0.28772400E+000 -0.10824804E+001
  0.17095516E+002 -0.26978917E+000 -0.29570448E+000
  0.17033710E+002 -0.45963960E+000 -0.23675677E+000
  0.16896423E+002 -0.88957734E+000 -0.14661100E+000
  0.16849667E+002 -0.10356664E+001  0.24307604E+000
  0.16945900E+002 -0.73006383E+000  0.43693703E+000
  0.17028031E+002 -0.42845770E+000  0.44944293E+000
  0.17075185E+002 -0.27759332E+000  0.40766510E+000
  0.17093940E+002  0.12999032E+000  0.53749134E+000
  0.17132476E+002  0.12480650E+000 -0.81741267E+000
  0.17132761E+002 -0.26893478E+000 -0.87286086E+000
  0.17118704E+002 -0.21809152E+000 -0.24254630E+000
  0.17077962E+002 -0.35892420E+000 -0.17492883E+000
  0.16967435E+002 -0.70514680E+000 -0.10064379E+000
  0.16934617E+002 -0.80623887E+000  0.17439922E+000
  0.17008891E+002 -0.57320320E+000  0.33769787E+000
  0.17053522E+002 -0.36957069E+000  0.38052961E+000
  0.17090680E+002 -0.24562527E+000  0.37237710E+000
  0.17098432E+002  0.13562731E+000  0.52953269E+000
  0.17112997E+002  0.98999144E-001 -0.77623744E+000
  0.17142181E+002 -0.22698697E+000 -0.63327543E+000
  0.17144261E+002 -0.16192004E+000 -0.17278658E+000
  0.17130461E+002 -0.24134575E+000 -0.10038096E+000
  0.17028568E+002 -0.55057849E+000 -0.75532910E-001
  0.17011937E+002 -0.60187129E+000  0.12135337E+000
  0.17065706E+002 -0.43726842E+000  0.24521719E+000
  0.17083008E+002 -0.30252068E+000  0.30193227E+000
  0.17106777E+002 -0.21156092E+000  0.33449960E+000
  0.17153157E+002  0.23728341E+000  0.55203654E+000
  0.17116420E+002  0.10794618E+000 -0.74995408E+000
  0.17148276E+002 -0.18927772E+000 -0.39560775E+000
  0.17171561E+002 -0.10381565E+000 -0.10132897E+000
  0.17169901E+002 -0.15822873E+000 -0.44223515E-001
  0.17110023E+002 -0.34910214E+000 -0.22467279E-001
  0.17104738E+002 -0.36523728E+000  0.46969734E-001
  0.17140356E+002 -0.26032450E+000  0.13199623E+000
  0.17114921E+002 -0.23165999E+000  0.21858357E+000
  0.17124034E+002 -0.17673929E+000  0.26580305E+000
  0.17143397E+002  0.21554452E+000  0.52918536E+000
  0.17036821E+002  0.65943738E-002 -0.11416207E+001
  0.17160610E+002 -0.14010190E+000 -0.19218696E+000
  0.17198426E+002 -0.48626036E-001 -0.47441998E-001
  0.17223898E+002 -0.42324812E-001  0.30351483E-001
  0.17187139E+002 -0.16757693E+000  0.24705493E-001
  0.17190575E+002 -0.15579123E+000 -0.17157024E-001
  0.17210318E+002 -0.10045974E+000  0.24576321E-001
  0.17147709E+002 -0.16046881E+000  0.13842986E+000
  0.17140554E+002 -0.14251527E+000  0.19568228E+000
  0.17138753E+002  0.20375960E+000  0.51490244E+000
  0.17061012E+002  0.69330930E-001 -0.18781165E+001
  0.17171102E+002 -0.10244205E+000  0.31221017E-001
  0.17224596E+002  0.32325251E-002  0.13270872E-001
  0.17269380E+002  0.52000108E-001  0.90481780E-001
  0.17254549E+002 -0.17749130E-001  0.60222025E-001
  0.17264715E+002  0.10689611E-001 -0.64227804E-001
  0.17267611E+002  0.24194255E-001 -0.58883530E-001
  0.17179299E+002 -0.94939886E-001  0.61504001E-001
  0.17157111E+002 -0.10998109E+000  0.13738943E+000
  0.17146678E+002  0.21737741E+000  0.47621220E+000
  0.17086943E+002  0.13673820E+000 -0.19230301E+001
  0.17188581E+002 -0.58394056E-001  0.10204141E+000
  0.17247626E+002  0.47489400E-001  0.70222982E-001
  0.17306758E+002  0.12324821E+000  0.13971938E+000
  0.17306409E+002  0.91363880E-001  0.85510778E-001
  0.17320911E+002  0.12791384E+000 -0.94828557E-001
  0.17310428E+002  0.11293674E+000 -0.12265145E+000
  0.17207825E+002 -0.37175891E-001 -0.79257598E-002
  0.17172979E+002 -0.78903428E-001  0.76897342E-001
  0.17143412E+002  0.20799710E+000  0.47234522E+000
  0.17120334E+002  0.25808527E+000 -0.22041347E+001
  0.17207044E+002 -0.19589118E-001  0.16387505E+000
  0.17266919E+002  0.83399737E-001  0.11671166E+000
  0.17327736E+002  0.16354140E+000  0.16498946E+000
  0.17340610E+002  0.16003720E+000  0.95060451E-001
  0.17358700E+002  0.20162008E+000 -0.10777226E+000
  0.17338032E+002  0.16804863E+000 -0.16149622E+000
  0.17232277E+002  0.11300042E-001 -0.66296348E-001
  0.17188044E+002 -0.50328841E-001  0.22147870E-001
  0.17141642E+002  0.20167742E+000  0.46981725E+000
