<?xml version="1.0"?>
<VTKFile type="PolyData" version="0.1" byte_order="LittleEndian">
  <PolyData>
    <Piece NumberOfPoints="     10" NumberOfVerts="  0" NumberOfLines="      9"
           NumberOfStrips="  0" NumberOfPolys="      0">
      <Points>
        <DataArray type="Float32" NumberOfComponents="3" format="ascii">
                       0.09128                       0.01724                     113.18144
                       7.63030                      19.10393                     100.87416
                      13.00341                      32.63953                      88.72172
                      17.51305                      43.94103                      76.50489
                      19.73133                      49.50625                      64.21737
                      19.72234                      49.47905                      51.96186
                      17.49468                      43.88569                      39.69101
                      12.99521                      32.60251                      27.44830
                       7.61125                      19.09084                      15.26091
                       0.00019                       0.00005                       3.00015
        </DataArray>
      </Points>
      <PointData>
        <DataArray type="Float32" Name="TranslationalVelocity" NumberOfComponents="3" format="ascii">
                       2.19365                       0.45724                      -0.01021
                     -33.67167                      13.86627                      -1.30629
                     -58.22509                      25.34370                       0.29313
                     -78.79731                      33.71648                       1.02073
                     -89.58071                      35.68923                      -0.04073
                     -89.62376                      35.12727                      -0.17776
                     -79.00729                      32.17235                      -0.81874
                     -58.47197                      24.27669                      -0.80009
                     -34.38805                      13.71263                       0.14915
                       0.00020                       0.00012                       0.00104
        </DataArray>
        <DataArray type="Float32" Name="RotationalVelocity" NumberOfComponents="3" format="ascii">
                      -0.02009                       0.09375                       1.80935
                       0.03297                       0.07791                       1.80629
                       0.17387                      -0.04244                       1.82945
                      -0.13884                       0.03183                       1.83872
                      -0.15717                       0.04812                       1.81599
                       0.06275                      -0.03392                       1.80306
                       0.08949                      -0.04346                       1.80464
                      -0.07703                       0.02240                       1.80191
                      -0.03312                       0.00673                       1.80039
                       0.02003                       0.00260                       1.80161
        </DataArray>
        <DataArray type="Float32" Name="TranslationalAcceleration" NumberOfComponents="3" format="ascii">
                      21.90890                      -1.97469                      -0.16934
                      13.81694                      -2.70300                      -5.98651
                       2.52300                      -5.44805                      -6.93654
                      -4.67564                       9.46816                       0.60669
                      -9.55202                       2.94543                      -0.67910
                      -7.14465                      -6.09425                      -1.43901
                      -1.59489                      -4.34046                      -1.63897
                      -0.98563                      -5.33069                      -3.69657
                       0.36636                       0.47157                      -3.59267
                      -0.01321                      -0.00711                      -0.08733
        </DataArray>
        <DataArray type="Float32" Name="OrientationX" NumberOfComponents="3" format="ascii">
                       0.78533                       0.61907                      -0.00340
                       0.37875                       0.92549                       0.00421
                       0.36790                       0.92986                      -0.00118
                       0.36478                       0.93109                      -0.00318
                       0.37086                       0.92869                       0.00054
                       0.37352                       0.92762                       0.00260
                       0.36738                       0.93007                      -0.00082
                       0.36894                       0.92945                      -0.00059
                       0.37210                       0.92819                       0.00073
                       0.37034                       0.92889                       0.00259
        </DataArray>
        <DataArray type="Float32" Name="OrientationY" NumberOfComponents="3" format="ascii">
                       0.61907                      -0.78533                       0.00119
                       0.92550                      -0.37875                      -0.00075
                       0.92987                      -0.36790                      -0.00033
                       0.93109                      -0.36478                       0.00025
                       0.92869                      -0.37086                       0.00007
                       0.92762                      -0.37352                      -0.00012
                       0.93007                      -0.36738                      -0.00023
                       0.92945                      -0.36894                       0.00007
                       0.92819                      -0.37210                       0.00010
                       0.92888                      -0.37035                       0.00404
        </DataArray>
        <DataArray type="Float32" Name="OrientationZ" NumberOfComponents="3" format="ascii">
                      -0.00194                      -0.00304                      -0.99999
                       0.00090                       0.00418                      -0.99999
                      -0.00074                      -0.00097                      -1.00000
                      -0.00093                      -0.00306                      -0.99999
                       0.00027                       0.00048                      -1.00000
                       0.00086                       0.00245                      -1.00000
                      -0.00052                      -0.00067                      -1.00000
                      -0.00015                      -0.00057                      -1.00000
                       0.00036                       0.00065                      -1.00000
                       0.00471                       0.00090                      -0.99999
        </DataArray>
      </PointData>
      <Lines>
        <DataArray type="Int32" Name="connectivity" format="ascii">
      0      1
      1      2
      2      3
      3      4
      4      5
      5      6
      6      7
      7      8
      8      9
        </DataArray>
        <DataArray type="Int32" Name="offsets" format="ascii">
      2
      4
      6
      8
     10
     12
     14
     16
     18
        </DataArray>
      </Lines>
    </Piece>
  </PolyData>
</VTKFile>
