# vtk DataFile Version 2.0
BldPointCP.BldA
ASCII
 
DATASET POLYDATA
POINTS 9 double
 -0.11065908E+002 -0.24536127E+001  0.10647576E+003
 -0.27386802E+002 -0.60888603E+001  0.94817593E+002
 -0.40285439E+002 -0.90114846E+001  0.82545201E+002
 -0.48954145E+002 -0.11005756E+002  0.70228335E+002
 -0.51769230E+002 -0.11664252E+002  0.58236570E+002
 -0.48963540E+002 -0.11027470E+002  0.46246634E+002
 -0.40288793E+002 -0.90259385E+001  0.33927630E+002
 -0.27420057E+002 -0.60942022E+001  0.21617096E+002
 -0.11190964E+002 -0.24781867E+001  0.98264824E+001
  
POINT_DATA 9
SCALARS Gamma_LL double
LOOKUP_TABLE default
 -0.48659957E+001
 -0.16100426E+003
 -0.14412127E+003
 -0.11908272E+003
 -0.11019902E+003
 -0.10289716E+003
 -0.11562099E+003
 -0.14786472E+003
 -0.69415513E+002
VECTORS Vind_CP double
  0.99637406E-001 -0.25866052E+000  0.11558313E+000
 -0.48286142E+000  0.17935263E-001  0.48394643E+000
 -0.65223706E+000 -0.25371555E-001  0.46071611E+000
 -0.86711449E+000 -0.89940559E-001  0.27090165E+000
 -0.95198193E+000 -0.12497546E+000  0.11365224E-001
 -0.77206509E+000 -0.93593743E-001 -0.20472066E+000
 -0.53969425E+000 -0.33081519E-001 -0.35532118E+000
 -0.49107178E+000 -0.19293477E-001 -0.46629536E+000
 -0.17644697E+000 -0.94695706E-002 -0.69428226E-001
VECTORS Vtot_CP double
  0.10833617E+002  0.19812438E+002 -0.14955954E+001
  0.47579020E+001  0.50468816E+002 -0.31423888E+001
 -0.13477601E+001  0.74804461E+002 -0.31762791E+001
 -0.67501776E+001  0.91430949E+002 -0.24323495E+001
 -0.86161266E+001  0.97038564E+002 -0.23747821E+001
 -0.67020809E+001  0.91581450E+002 -0.23145895E+001
 -0.13866204E+001  0.74801117E+002 -0.15479361E+001
  0.52423410E+001  0.50399697E+002 -0.73282280E+000
  0.12506412E+002  0.20412072E+002 -0.77599558E-001
VECTORS Vstr_CP double
  0.64660201E+001 -0.20071099E+002  0.16111785E+001
  0.11959237E+002 -0.50450880E+002  0.36263353E+001
  0.17895523E+002 -0.74829832E+002  0.36369952E+001
  0.23083063E+002 -0.91520889E+002  0.27032512E+001
  0.24864145E+002 -0.97163539E+002  0.23861473E+001
  0.23130016E+002 -0.91675044E+002  0.21098688E+001
  0.18046926E+002 -0.74834198E+002  0.11926149E+001
  0.11466587E+002 -0.50418990E+002  0.26652743E+000
  0.45171409E+001 -0.20421541E+002  0.81713321E-002
VECTORS Vwnd_CP double
  0.17200000E+002  0.00000000E+000  0.00000000E+000
  0.17200000E+002  0.00000000E+000  0.00000000E+000
  0.17200000E+002  0.00000000E+000  0.00000000E+000
  0.17200000E+002  0.00000000E+000  0.00000000E+000
  0.17200000E+002  0.00000000E+000  0.00000000E+000
  0.17200000E+002  0.00000000E+000  0.00000000E+000
  0.17200000E+002  0.00000000E+000  0.00000000E+000
  0.17200000E+002  0.00000000E+000  0.00000000E+000
  0.17200000E+002  0.00000000E+000  0.00000000E+000
VECTORS Tangent double
 -0.84925308E+000  0.52792673E+000 -0.79103753E-002
 -0.22105752E+000  0.97526077E+000 -0.17571182E-004
 -0.21899118E+000  0.97572644E+000 -0.88331152E-003
 -0.20977226E+000  0.97774740E+000 -0.23717535E-002
 -0.20575705E+000  0.97860310E+000 -0.96568176E-004
 -0.20565016E+000  0.97862530E+000  0.73623034E-003
 -0.20786133E+000  0.97815813E+000  0.57901644E-003
 -0.21101050E+000  0.97748351E+000  0.75087000E-003
 -0.21322735E+000  0.97700247E+000  0.51799065E-003
VECTORS Normal double
 -0.34082714E+000 -0.53670844E+000  0.77186846E+000
 -0.62596113E+000 -0.14186969E+000  0.76684135E+000
 -0.70006723E+000 -0.15649174E+000  0.69671817E+000
 -0.87777852E+000 -0.18725465E+000  0.44095415E+000
 -0.97860253E+000 -0.20575682E+000  0.11047300E-002
 -0.87837795E+000 -0.18425220E+000 -0.44102529E+000
 -0.70159108E+000 -0.14867753E+000 -0.69689666E+000
 -0.63151849E+000 -0.13574022E+000 -0.76338653E+000
 -0.50000941E+000 -0.10866977E+000 -0.85917488E+000
VECTORS Orth double
 -0.40324442E+000 -0.65820774E+000 -0.63573305E+000
 -0.74786779E+000 -0.16952705E+000 -0.64183670E+000
 -0.67966810E+000 -0.15319351E+000 -0.71734442E+000
 -0.43069765E+000 -0.94581822E-001 -0.89752650E+000
 -0.10612226E-002 -0.32180783E-003 -0.99999939E+000
  0.43146286E+000  0.91343610E-001 -0.89749437E+000
  0.68158905E+000  0.14526410E+000 -0.71717133E+000
  0.74609582E+000  0.16155676E+000 -0.64594152E+000
  0.83935969E+000  0.18345858E+000 -0.51168180E+000
