# vtk DataFile Version 2.0

ASCII
 
DATASET POLYDATA
POINTS 70 double
  0.35609182E-001  0.62507968E-002  0.11318187E+003
  0.11843072E+002 -0.16804208E+002  0.10091614E+003
  0.20200077E+002 -0.28683791E+002  0.88710200E+002
  0.27204587E+002 -0.38615796E+002  0.76476290E+002
  0.30691297E+002 -0.43557920E+002  0.64218959E+002
  0.30688601E+002 -0.43550890E+002  0.51968985E+002
  0.27199170E+002 -0.38598459E+002  0.39717539E+002
  0.20197942E+002 -0.28666013E+002  0.27477585E+002
  0.11836909E+002 -0.16800699E+002  0.15255494E+002
  0.16241854E-003  0.37530681E-004  0.30001114E+001
 -0.18537963E+001 -0.40778827E+001  0.11318086E+003
  0.82407287E+001 -0.19351964E+002  0.10091995E+003
  0.17665538E+002 -0.30463316E+002  0.88711965E+002
  0.25195079E+002 -0.40026897E+002  0.76476091E+002
  0.28848428E+002 -0.44858827E+002  0.64219002E+002
  0.28810748E+002 -0.44878291E+002  0.51968315E+002
  0.25071633E+002 -0.40093485E+002  0.39716690E+002
  0.17396616E+002 -0.30637670E+002  0.27477796E+002
  0.81608474E+001 -0.19396190E+002  0.15255523E+002
 -0.36784011E+001 -0.25918916E+001  0.29915461E+001
 -0.17695184E+001 -0.40453652E+001  0.11318114E+003
  0.80563599E+001 -0.19494063E+002  0.10092502E+003
  0.17281787E+002 -0.30767974E+002  0.88707959E+002
  0.24632975E+002 -0.40462316E+002  0.76468723E+002
  0.28201316E+002 -0.45367077E+002  0.64217415E+002
  0.28164015E+002 -0.45389056E+002  0.51969032E+002
  0.24509968E+002 -0.40534044E+002  0.39721001E+002
  0.17009445E+002 -0.30942877E+002  0.27480685E+002
  0.79801759E+001 -0.19538840E+002  0.15252743E+002
 -0.35531405E+001 -0.25249563E+001  0.29935980E+001
 -0.16811033E+001 -0.40109964E+001  0.11318160E+003
  0.78726544E+001 -0.19629758E+002  0.10093253E+003
  0.16893176E+002 -0.31063540E+002  0.88704425E+002
  0.24064482E+002 -0.40886363E+002  0.76462990E+002
  0.27545559E+002 -0.45859677E+002  0.64215950E+002
  0.27508572E+002 -0.45882981E+002  0.51969343E+002
  0.23941698E+002 -0.40961089E+002  0.39723962E+002
  0.16617533E+002 -0.31237793E+002  0.27482514E+002
  0.77974920E+001 -0.19675283E+002  0.15249358E+002
 -0.34262477E+001 -0.24573225E+001  0.29957828E+001
 -0.15882607E+001 -0.39748992E+001  0.11318193E+003
  0.76877987E+001 -0.19760117E+002  0.10093703E+003
  0.16499327E+002 -0.31349477E+002  0.88701067E+002
  0.23489498E+002 -0.41298083E+002  0.76458710E+002
  0.26881046E+002 -0.46335508E+002  0.64214446E+002
  0.26843996E+002 -0.46358966E+002  0.51969618E+002
  0.23366394E+002 -0.41373643E+002  0.39725968E+002
  0.16220598E+002 -0.31521805E+002  0.27483906E+002
  0.76129734E+001 -0.19805620E+002  0.15245886E+002
 -0.32980521E+001 -0.23888705E+001  0.29976587E+001
 -0.14909116E+001 -0.39369752E+001  0.11318207E+003
  0.75014396E+001 -0.19885081E+002  0.10094074E+003
  0.16101279E+002 -0.31627047E+002  0.88698656E+002
  0.22909356E+002 -0.41698624E+002  0.76456239E+002
  0.26209406E+002 -0.46796447E+002  0.64213286E+002
  0.26171911E+002 -0.46819205E+002  0.51969886E+002
  0.22785261E+002 -0.41773094E+002  0.39727051E+002
  0.15819547E+002 -0.31796016E+002  0.27484790E+002
  0.74264988E+001 -0.19929860E+002  0.15242961E+002
 -0.31685914E+001 -0.23196637E+001  0.29987228E+001
 -0.13902419E+001 -0.38972644E+001  0.11318211E+003
  0.73141239E+001 -0.20004087E+002  0.10094123E+003
  0.15700255E+002 -0.31897832E+002  0.88697968E+002
  0.22325343E+002 -0.42089964E+002  0.76455646E+002
  0.25532840E+002 -0.47246177E+002  0.64212952E+002
  0.25494876E+002 -0.47268131E+002  0.51969937E+002
  0.22199969E+002 -0.42162380E+002  0.39727231E+002
  0.15415538E+002 -0.32062168E+002  0.27484952E+002
  0.72383637E+001 -0.20047810E+002  0.15242282E+002
 -0.30377847E+001 -0.22498002E+001  0.29990195E+001
  
POLYGONS 54 270
      4      0      1     11     10
      4      1      2     12     11
      4      2      3     13     12
      4      3      4     14     13
      4      4      5     15     14
      4      5      6     16     15
      4      6      7     17     16
      4      7      8     18     17
      4      8      9     19     18
      4     10     11     21     20
      4     11     12     22     21
      4     12     13     23     22
      4     13     14     24     23
      4     14     15     25     24
      4     15     16     26     25
      4     16     17     27     26
      4     17     18     28     27
      4     18     19     29     28
      4     20     21     31     30
      4     21     22     32     31
      4     22     23     33     32
      4     23     24     34     33
      4     24     25     35     34
      4     25     26     36     35
      4     26     27     37     36
      4     27     28     38     37
      4     28     29     39     38
      4     30     31     41     40
      4     31     32     42     41
      4     32     33     43     42
      4     33     34     44     43
      4     34     35     45     44
      4     35     36     46     45
      4     36     37     47     46
      4     37     38     48     47
      4     38     39     49     48
      4     40     41     51     50
      4     41     42     52     51
      4     42     43     53     52
      4     43     44     54     53
      4     44     45     55     54
      4     45     46     56     55
      4     46     47     57     56
      4     47     48     58     57
      4     48     49     59     58
      4     50     51     61     60
      4     51     52     62     61
      4     52     53     63     62
      4     53     54     64     63
      4     54     55     65     64
      4     55     56     66     65
      4     56     57     67     66
      4     57     58     68     67
      4     58     59     69     68
  
CELL_DATA 54
SCALARS Gamma double
LOOKUP_TABLE default
  0.12940546E+002
  0.26383846E+002
  0.18957153E+002
  0.22682258E+002
  0.26751777E+002
  0.25299876E+002
  0.23305827E+002
  0.28582989E+002
  0.78166061E+001
  0.12940546E+002
  0.26383846E+002
  0.18957153E+002
  0.22682258E+002
  0.26751777E+002
  0.25299876E+002
  0.23305827E+002
  0.28582989E+002
  0.78166061E+001
  0.55517334E+001
  0.11524444E+002
  0.84253451E+001
  0.98669053E+001
  0.11443381E+002
  0.10857547E+002
  0.10153410E+002
  0.12534465E+002
  0.33987728E+001
  0.10796506E+001
  0.22864924E+001
  0.17123151E+001
  0.19508177E+001
  0.22107269E+001
  0.21117534E+001
  0.20087758E+001
  0.24850141E+001
  0.67029763E+000
  0.12168383E-001
  0.26361473E-001
  0.20268502E-001
  0.22122473E-001
  0.24323726E-001
  0.23479501E-001
  0.22930704E-001
  0.28397287E-001
  0.76470951E-002
  0.00000000E+000
  0.00000000E+000
  0.00000000E+000
  0.00000000E+000
  0.00000000E+000
  0.00000000E+000
  0.00000000E+000
  0.00000000E+000
  0.00000000E+000
POINT_DATA 70
VECTORS Uconv double
  0.00000000E+000  0.00000000E+000  0.00000000E+000
  0.00000000E+000  0.00000000E+000  0.00000000E+000
  0.00000000E+000  0.00000000E+000  0.00000000E+000
  0.00000000E+000  0.00000000E+000  0.00000000E+000
  0.00000000E+000  0.00000000E+000  0.00000000E+000
  0.00000000E+000  0.00000000E+000  0.00000000E+000
  0.00000000E+000  0.00000000E+000  0.00000000E+000
  0.00000000E+000  0.00000000E+000  0.00000000E+000
  0.00000000E+000  0.00000000E+000  0.00000000E+000
  0.00000000E+000  0.00000000E+000  0.00000000E+000
  0.00000000E+000  0.00000000E+000  0.00000000E+000
  0.00000000E+000  0.00000000E+000  0.00000000E+000
  0.00000000E+000  0.00000000E+000  0.00000000E+000
  0.00000000E+000  0.00000000E+000  0.00000000E+000
  0.00000000E+000  0.00000000E+000  0.00000000E+000
  0.00000000E+000  0.00000000E+000  0.00000000E+000
  0.00000000E+000  0.00000000E+000  0.00000000E+000
  0.00000000E+000  0.00000000E+000  0.00000000E+000
  0.00000000E+000  0.00000000E+000  0.00000000E+000
  0.00000000E+000  0.00000000E+000  0.00000000E+000
  0.17181495E+002 -0.12839594E-001 -0.64707953E-001
  0.17131102E+002 -0.20640681E-001 -0.22627100E+000
  0.17180843E+002  0.24343586E-001 -0.33358688E-001
  0.17168018E+002  0.43561103E-001 -0.30631640E-001
  0.17160145E+002  0.54838830E-001 -0.18101608E-001
  0.17157149E+002  0.59418396E-001  0.20649424E-001
  0.17164580E+002  0.53502270E-001  0.37623056E-001
  0.17176496E+002  0.32947199E-001  0.41362625E-001
  0.17189728E+002  0.16332407E-001  0.37272119E-001
  0.17141371E+002  0.21070886E-001 -0.81188706E-001
  0.17181108E+002 -0.12766041E-001 -0.65063226E-001
  0.17183679E+002  0.10166310E-001 -0.66264232E-001
  0.17187375E+002  0.15439974E-001 -0.21304589E-001
  0.17183220E+002  0.22499588E-001 -0.13882480E-001
  0.17172723E+002  0.37424644E-001 -0.76942562E-002
  0.17171019E+002  0.40374530E-001  0.92111969E-002
  0.17182037E+002  0.29733402E-001  0.18303799E-001
  0.17184063E+002  0.22647960E-001  0.27460970E-001
  0.17191521E+002  0.14049251E-001  0.30857617E-001
  0.17142258E+002  0.20044272E-001 -0.78933961E-001
  0.17180700E+002 -0.12692200E-001 -0.65409968E-001
  0.17185426E+002  0.78062370E-002 -0.55668648E-001
  0.17193784E+002  0.63013824E-002 -0.91311088E-002
  0.17198488E+002  0.54500668E-003  0.32514583E-002
  0.17185357E+002  0.19119238E-001  0.29009669E-002
  0.17184987E+002  0.20243782E-001 -0.25000777E-002
  0.17199394E+002  0.49947121E-002 -0.14127845E-002
  0.17191432E+002  0.12125217E-001  0.13499034E-001
  0.17193290E+002  0.11740599E-001  0.24611657E-001
  0.17143166E+002  0.19023204E-001 -0.76625008E-001
  0.17180271E+002 -0.12619192E-001 -0.65743913E-001
  0.17149177E+002 -0.19268339E-001  0.95548833E-001
  0.17199930E+002 -0.27772204E-002  0.28236841E-002
  0.17212419E+002 -0.20186335E-001  0.19299535E-001
  0.17196585E+002  0.21220948E-002  0.12379719E-001
  0.17197436E+002  0.14483146E-002 -0.13047028E-001
  0.17215090E+002 -0.18370006E-001 -0.19875999E-001
  0.17198418E+002  0.17095635E-002 -0.12971228E-003
  0.17183441E+002  0.19024127E-002 -0.34409465E-001
  0.17144099E+002  0.18014273E-001 -0.74258664E-001
  0.17179825E+002 -0.12549977E-001 -0.66056993E-001
  0.17166904E+002 -0.11165800E-001  0.94963755E-001
  0.17205697E+002 -0.11508202E-001  0.14243300E-001
  0.17223963E+002 -0.37936988E-001  0.33061353E-001
  0.17205440E+002 -0.11846614E-001  0.19776427E-001
  0.17207281E+002 -0.14050721E-001 -0.21335533E-001
  0.17228029E+002 -0.38417880E-001 -0.35753661E-001
  0.17204886E+002 -0.82812303E-002 -0.13071990E-001
  0.17190041E+002  0.28511983E-002 -0.31807693E-001
  0.17145055E+002  0.17017669E-001 -0.71837621E-001
