# vtk DataFile Version 2.0
BldPointCP.BldB
ASCII
 
DATASET POLYDATA
POINTS 9 double
  0.25145222E+001  0.11290285E+002  0.10624541E+003
  0.56464712E+001  0.27657326E+002  0.94474916E+002
  0.81985807E+001  0.40805610E+002  0.82384196E+002
  0.99203073E+001  0.49556195E+002  0.70126640E+002
  0.10472551E+002  0.52234992E+002  0.58079192E+002
  0.99323974E+001  0.49380630E+002  0.46054788E+002
  0.81923881E+001  0.40640118E+002  0.33763395E+002
  0.55676607E+001  0.27590451E+002  0.21572243E+002
  0.22683998E+001  0.11235235E+002  0.98387229E+001
  
POINT_DATA 9
SCALARS Gamma_LL double
LOOKUP_TABLE default
  0.10462946E+003
  0.47042683E+002
  0.19700607E+002
  0.15750973E+002
  0.33020767E+002
  0.28730511E+002
  0.20955286E+002
  0.29019679E+002
  0.34819224E+002
VECTORS Vind_CP double
 -0.43658279E-001 -0.11907431E+000 -0.44164990E+000
 -0.74587278E-001 -0.17509362E+000 -0.23221378E+000
 -0.51745946E-001 -0.12002905E+000 -0.62417448E-001
 -0.49655411E-001 -0.16547607E+000 -0.51082462E-002
 -0.75807834E-001 -0.33419388E+000  0.28988324E-001
 -0.95863631E-001 -0.31858701E+000  0.99671713E-001
 -0.75062466E-001 -0.20603310E+000  0.12425519E+000
 -0.60957016E-001 -0.18487612E+000  0.17428938E+000
 -0.12188171E+000 -0.67388029E-001  0.10217629E+000
VECTORS Vtot_CP double
  0.34938530E+002 -0.46693667E+001  0.12436726E+000
  0.65908867E+002 -0.10622139E+002  0.58311123E+000
  0.90754012E+002 -0.15937350E+002  0.16497981E+000
  0.10718623E+003 -0.19156346E+002 -0.34150017E-001
  0.11208295E+003 -0.19617317E+002  0.12097363E+000
  0.10658033E+003 -0.18239769E+002  0.24022517E+000
  0.90483270E+002 -0.15084233E+002  0.34970041E+000
  0.66849333E+002 -0.10321844E+002  0.32755702E+000
  0.37320113E+002 -0.41557478E+001  0.11901855E+000
VECTORS Vstr_CP double
 -0.17782188E+002  0.45502924E+001 -0.56601717E+000
 -0.48783454E+002  0.10447045E+002 -0.81532501E+000
 -0.73605758E+002  0.15817321E+002 -0.22739725E+000
 -0.90035886E+002  0.18990870E+002  0.29041770E-001
 -0.94958757E+002  0.19283123E+002 -0.91985306E-001
 -0.89476193E+002  0.17921182E+002 -0.14055345E+000
 -0.73358332E+002  0.14878200E+002 -0.22544523E+000
 -0.49710290E+002  0.10136968E+002 -0.15326764E+000
 -0.20241994E+002  0.40883597E+001 -0.16842256E-001
VECTORS Vwnd_CP double
  0.17200000E+002  0.00000000E+000  0.00000000E+000
  0.17200000E+002  0.00000000E+000  0.00000000E+000
  0.17200000E+002  0.00000000E+000  0.00000000E+000
  0.17200000E+002  0.00000000E+000  0.00000000E+000
  0.17200000E+002  0.00000000E+000  0.00000000E+000
  0.17200000E+002  0.00000000E+000  0.00000000E+000
  0.17200000E+002  0.00000000E+000  0.00000000E+000
  0.17200000E+002  0.00000000E+000  0.00000000E+000
  0.17200000E+002  0.00000000E+000  0.00000000E+000
VECTORS Tangent double
  0.88781962E+000 -0.46018845E+000  0.17064953E-002
  0.97704556E+000 -0.21298776E+000 -0.42655658E-002
  0.98132894E+000 -0.19228463E+000 -0.44878987E-002
  0.98157160E+000 -0.19108632E+000 -0.17912427E-002
  0.97933266E+000 -0.20225577E+000 -0.37004082E-003
  0.98018565E+000 -0.19808046E+000 -0.46462645E-003
  0.98116539E+000 -0.19316940E+000 -0.25117451E-003
  0.98020320E+000 -0.19799417E+000  0.67838559E-004
  0.97985604E+000 -0.19961129E+000  0.61210672E-002
VECTORS Normal double
  0.24515824E+000  0.47610380E+000  0.84452508E+000
  0.13859855E+000  0.62033668E+000  0.77199278E+000
  0.13844851E+000  0.68999324E+000  0.71045151E+000
  0.17349047E+000  0.88717723E+000  0.42757178E+000
  0.20224168E+000  0.97928303E+000 -0.10150944E-001
  0.17820344E+000  0.88284503E+000 -0.43454365E+000
  0.13710403E+000  0.69730736E+000 -0.70353744E+000
  0.12658278E+000  0.62640568E+000 -0.76915065E+000
  0.10742703E+000  0.50100650E+000 -0.85875021E+000
VECTORS Orth double
  0.38945316E+000  0.74936757E+000 -0.53551329E+000
  0.16177892E+000  0.75486331E+000 -0.63561699E+000
  0.13351229E+000  0.69780796E+000 -0.70373185E+000
  0.80113966E-001  0.42000308E+000 -0.90397963E+000
 -0.24154617E-002 -0.98663135E-002 -0.99994841E+000
 -0.86484802E-001 -0.42585066E+000 -0.90065065E+000
 -0.13607705E+000 -0.69025215E+000 -0.71065815E+000
 -0.15224485E+000 -0.75393251E+000 -0.63906750E+000
 -0.16834954E+000 -0.84210915E+000 -0.51235790E+000
