<?xml version="1.0"?>
<VTKFile type="PolyData" version="0.1" byte_order="LittleEndian">
  <PolyData>
    <Piece NumberOfPoints="    165" NumberOfVerts="  0" NumberOfLines="      0"
           NumberOfStrips="  0" NumberOfPolys="      0">
      <Points>
        <DataArray type="Float32" NumberOfComponents="3" format="ascii">
                       0.28397                       0.06164                     113.18085
                      -6.46970                      -1.82158                     109.60184
                     -12.76586                      -3.58069                     106.02752
                     -18.59790                      -5.21653                     102.44598
                     -20.25692                      -5.68342                     101.37007
                     -23.96149                      -6.72905                      98.85098
                     -28.84207                      -8.11230                      95.22162
                     -33.23352                      -9.36430                      91.55531
                     -37.13518                     -10.48481                      87.85844
                     -40.55351                     -11.47484                      84.14464
                     -43.49947                     -12.33594                      80.42841
                     -45.98498                     -13.06941                      76.72054
                     -48.01804                     -13.67516                      73.02483
                     -49.60192                     -14.15174                      69.33998
                     -50.73697                     -14.49687                      65.66262
                     -51.42057                     -14.70768                      61.98887
                     -51.64933                     -14.78165                      58.31612
                     -51.42201                     -14.71745                      54.64309
                     -50.73935                     -14.51502                      50.96873
                     -49.60430                     -14.17568                      47.29087
                     -48.01938                     -13.70144                      43.60624
                     -45.98480                     -13.09432                      39.91168
                     -43.49827                     -12.35614                      36.20555
                     -40.55331                     -11.48801                      32.49033
                     -37.14080                     -10.49050                      28.77332
                     -33.25335                      -9.36454                      25.06332
                     -28.88683                      -8.11140                      21.36800
                     -24.04282                      -6.73278                      17.68868
                     -20.37155                      -5.69431                      15.11891
                     -18.72826                      -5.23139                      14.01781
                     -12.94899                      -3.61010                      10.34658
                      -6.70614                      -1.86727                       6.67368
                       0.00017                       0.00003                       3.00019
                       0.28397                       0.06164                     113.18085
                       1.97362                       6.78943                     109.45756
                       3.53871                      13.04545                     105.72443
                       4.98986                      18.84495                     102.01157
                       5.40416                      20.49823                     100.90539
                       6.33581                      24.21056                      98.35098
                       7.57716                      29.15112                      94.74805
                       8.70843                      33.64391                      91.16235
                       9.72431                      37.66550                      87.56142
                      10.61965                      41.19540                      83.92554
                      11.39105                      44.22253                      80.25225
                      12.03784                      46.74804                      76.55267
                      12.56171                      48.78240                      72.84267
                      12.96536                      50.33974                      69.13535
                      13.25159                      51.43396                      65.43822
                      13.42267                      52.07662                      61.75282
                      13.47996                      52.27535                      58.07589
                      13.42366                      52.03276                      54.40160
                      13.25287                      51.34695                      50.72400
                      12.96587                      50.21253                      47.03909
                      12.56057                      48.62253                      43.34574
                      12.03457                      46.56851                      39.64654
                      11.38517                      44.04054                      35.94856
                      10.61009                      41.03007                      32.26175
                       9.70835                      37.53316                      28.59501
                       8.68079                      33.55265                      24.95128
                       7.53019                      29.09874                      21.32273
                       6.26010                      24.18460                      17.69286
                       5.30148                      20.47676                      15.14138
                       4.87330                      18.82060                      14.04410
                       3.36923                      13.00469                      10.37589
                       1.74590                       6.73299                       6.69157
                       0.00017                       0.00003                       3.00019
                       0.28397                       0.06164                     113.18085
                       5.20342                      -4.82856                     109.45686
                       9.77164                      -9.37906                     105.72188
                      14.00486                     -13.59752                     102.00541
                      15.21171                     -14.79978                     100.89774
                      17.92180                     -17.49888                      98.33926
                      21.52893                     -21.09112                      94.73117
                      24.81219                     -24.35857                      91.14374
                      27.75692                     -27.28423                      87.54582
                      30.34929                     -29.85234                      83.91679
                      32.58028                     -32.05300                      80.25141
                      34.44776                     -33.88435                      76.55750
                      35.95608                     -35.35223                      72.84938
                      37.11358                     -36.46719                      69.14098
                      37.92960                     -37.24157                      65.44160
                      38.41269                     -37.68727                      61.75444
                      38.56867                     -37.81337                      58.07684
                      38.39915                     -37.62432                      54.40256
                      37.90190                     -37.11997                      50.72493
                      37.07115                     -36.29574                      47.03970
                      35.89969                     -35.14450                      43.34668
                      34.38000                     -33.65803                      39.65020
                      32.50543                     -31.82831                      35.95842
                      30.27277                     -29.65034                      32.27979
                      27.68311                     -27.12326                      28.61930
                      24.74119                     -24.25002                      24.97619
                      21.45493                     -21.03704                      21.34161
                      17.83192                     -17.49098                      17.70267
                      15.09785                     -14.81274                      15.14706
                      13.87629                     -13.61532                      14.04943
                       9.58659                      -9.40786                      10.38259
                       4.96238                      -4.86973                       6.69842
                       0.00017                       0.00003                       3.00019
                      -0.09693                      -0.02675                      15.12070
                      -2.03864                      -0.56605                      15.12087
                      -4.07638                      -1.13327                      15.12148
                      -6.11384                      -1.70152                      15.12223
                      -8.15105                      -2.27062                      15.12284
                     -10.18805                      -2.84043                      15.12314
                     -12.22490                      -3.41078                      15.12301
                     -14.26163                      -3.98150                      15.12240
                     -16.29828                      -4.55244                      15.12136
                     -18.33491                      -5.12343                      15.12009
                     -20.37155                      -5.69431                      15.11891
                       0.02452                       0.09675                      15.12070
                       0.52930                       2.04774                      15.12801
                       1.05926                       4.09551                      15.13537
                       1.58934                       6.14325                      15.14194
                       2.11951                       8.19097                      15.14733
                       2.64976                      10.23865                      15.15118
                       3.18007                      12.28632                      15.15327
                       3.71042                      14.33396                      15.15342
                       4.24078                      16.38159                      15.15155
                       4.77114                      18.42918                      15.14755
                       5.30148                      20.47676                      15.14138
                       0.07075                      -0.07017                      15.12070
                       1.50825                      -1.48242                      15.12857
                       3.01744                      -2.96438                      15.13647
                       4.52694                      -4.44603                      15.14355
                       6.03671                      -5.92740                      15.14941
                       7.54668                      -7.40856                      15.15376
                       9.05682                      -8.88954                      15.15635
                      10.56706                     -10.37040                      15.15702
                      12.07734                     -11.85119                      15.15572
                      13.58763                     -13.33195                      15.15239
                      15.09785                     -14.81274                      15.14706
                       0.01431                      -0.01088                     101.06359
                      -1.92695                      -0.55169                     101.07533
                      -3.96427                      -1.12015                     101.09506
                      -6.00133                      -1.68932                     101.12101
                      -8.03818                      -2.25908                     101.15185
                     -10.07483                      -2.82932                     101.18630
                     -12.11135                      -3.39990                     101.22314
                     -14.14776                      -3.97073                     101.26118
                     -16.18413                      -4.54167                     101.29922
                     -18.22050                      -5.11261                     101.33596
                     -20.25692                      -5.68342                     101.37007
                       0.13576                       0.11261                     101.06359
                       0.63908                       2.06429                     101.04549
                       1.16781                       4.11271                     101.02582
                       1.69692                       6.16102                     101.00584
                       2.22632                       8.20925                     100.98599
                       2.75594                      10.25742                     100.96680
                       3.28570                      12.30556                     100.94886
                       3.81549                      14.35369                     100.93286
                       4.34523                      16.40183                     100.91959
                       4.87483                      18.45000                     100.91006
                       5.40416                      20.49823                     100.90539
                       0.18198                      -0.05431                     101.06359
                       1.62082                      -1.46571                     101.04567
                       3.13111                      -2.94710                     101.02612
                       4.64142                      -4.42846                     101.00608
                       6.15173                      -5.90982                     100.98595
                       7.66201                      -7.39120                     100.96620
                       9.17222                      -8.87264                     100.94740
                      10.68234                     -10.35417                     100.93024
                      12.19233                     -11.83585                     100.91554
                      13.70213                     -13.31770                     100.90432
                      15.21171                     -14.79978                     100.89774
        </DataArray>
      </Points>
      <PointData>
        <DataArray type="Float32" Name="TranslationalVelocity" NumberOfComponents="3" format="ascii">
                       3.18391                       0.78113                      -0.01040
                       6.18498                     -11.58118                       0.82756
                       8.87099                     -23.17623                       1.79596
                      11.30305                     -34.00516                       2.77397
                      11.98573                     -37.10564                       3.06433
                      13.50934                     -44.06382                       3.70430
                      15.58561                     -53.27966                       4.41658
                      17.64340                     -61.61129                       4.79154
                      19.77353                     -69.03799                       4.78922
                      21.98801                     -75.56457                       4.48339
                      24.20641                     -81.21736                       4.02501
                      26.29096                     -86.02905                       3.56951
                      28.10681                     -90.01755                       3.21555
                      29.55985                     -93.17809                       2.99262
                      30.60480                     -95.48721                       2.88119
                      31.23250                     -96.91013                       2.84149
                      31.44878                     -97.41404                       2.83409
                      31.26522                     -96.97945                       2.82623
                      30.69585                     -95.60260                       2.79168
                      29.75725                     -93.29616                       2.70911
                      28.46576                     -90.08354                       2.55981
                      26.84255                     -85.99247                       2.32921
                      24.92057                     -81.04961                       2.01357
                      22.74124                     -75.27391                       1.62367
                      20.35227                     -68.67590                       1.18837
                      17.80507                     -61.26237                       0.75701
                      15.14178                     -53.03586                       0.38887
                      12.38260                     -43.99855                       0.13321
                      10.39769                     -37.19420                       0.04122
                       9.53387                     -34.16268                       0.02332
                       6.55042                     -23.55777                      -0.00127
                       3.38202                     -12.17815                       0.00013
                      -0.00047                      -0.00038                       0.00024
                       3.18391                       0.78113                      -0.01040
                      -9.44167                       3.72550                      -0.41957
                     -21.27322                       6.40561                      -0.88905
                     -32.25690                       8.95692                      -1.19627
                     -35.38314                       9.71026                      -1.24079
                     -42.38074                      11.48348                      -1.21674
                     -51.66262                      14.02936                      -0.92417
                     -60.07371                      16.51824                      -0.46043
                     -67.58366                      18.84402                       0.01691
                     -74.17524                      20.86775                       0.35823
                     -79.84669                      22.46912                       0.48825
                     -84.60565                      23.59944                       0.42964
                     -88.46288                      24.28576                       0.26240
                     -91.42809                      24.60276                       0.07283
                     -93.50879                      24.65000                      -0.07474
                     -94.71313                      24.52343                      -0.15321
                     -95.05096                      24.29268                      -0.17107
                     -94.53190                      23.99535                      -0.15907
                     -93.16524                      23.63654                      -0.15501
                     -90.95864                      23.19653                      -0.19067
                     -87.91972                      22.63443                      -0.28140
                     -84.05515                      21.89062                      -0.41701
                     -79.36756                      20.89754                      -0.56005
                     -73.85698                      19.59507                      -0.65315
                     -67.52194                      17.95239                      -0.64213
                     -60.35918                      15.98798                      -0.51351
                     -52.36779                      13.75982                      -0.30983
                     -43.54971                      11.33556                      -0.11056
                     -36.88571                       9.55278                      -0.02171
                     -33.90520                       8.77031                      -0.00215
                     -23.43143                       6.04815                       0.02489
                     -12.13141                       3.13216                       0.01619
                      -0.00047                      -0.00038                       0.00024
                       3.18391                       0.78113                      -0.01040
                      11.59995                       9.70594                      -0.61833
                      19.32413                      17.98952                      -1.26931
                      26.50743                      25.58965                      -1.71766
                      28.57453                      27.73232                      -1.79176
                      33.29563                      32.46069                      -1.78525
                      39.74778                      38.55743                      -1.41413
                      45.77224                      43.92943                      -0.80500
                      51.25947                      48.65204                      -0.16630
                      56.07745                      52.83043                       0.30860
                      60.11244                      56.56946                       0.51290
                      63.30969                      59.93451                       0.45567
                      65.68867                      62.93179                       0.23089
                      67.32596                      65.51534                      -0.04231
                      68.32883                      67.60133                      -0.26592
                      68.80599                      69.09030                      -0.39105
                      68.83726                      69.89320                      -0.42377
                      68.45712                      69.94621                      -0.40902
                      67.65389                      69.21745                      -0.40553
                      66.37304                      67.70997                      -0.45955
                      64.53189                      65.45806                      -0.58398
                      62.03778                      62.51648                      -0.74877
                      58.81102                      58.94330                      -0.88916
                      54.81245                      54.78195                      -0.93477
                      50.05172                      50.05282                      -0.84140
                      44.58158                      44.75172                      -0.61597
                      38.48368                      38.85526                      -0.32659
                      31.83411                      32.33537                      -0.07084
                      26.87795                      27.38878                       0.04004
                      24.67968                      25.17334                       0.06714
                      16.99957                      17.39225                       0.11451
                       8.77584                       9.00397                       0.09346
                      -0.00047                      -0.00038                       0.00024
                       0.04633                      -0.17686                       0.00078
                       1.02216                      -3.68909                      -0.00044
                       2.05174                      -7.38671                      -0.00307
                       3.08608                     -11.09419                      -0.00625
                       4.12443                     -14.80999                      -0.00909
                       5.16607                     -18.53258                      -0.01059
                       6.21026                     -22.26043                      -0.00971
                       7.25625                     -25.99202                      -0.00531
                       8.30331                     -29.72584                       0.00381
                       9.35070                     -33.46040                       0.01889
                      10.39769                     -37.19420                       0.04122
                      -0.17611                       0.04188                       0.00078
                      -3.69520                       0.95292                       0.01199
                      -7.38728                       1.90900                       0.02315
                     -11.07784                       2.86493                       0.03265
                     -14.76709                       3.82071                       0.03949
                     -18.45521                       4.77636                       0.04275
                     -22.14239                       5.73189                       0.04155
                     -25.82884                       6.68728                       0.03507
                     -29.51475                       7.64256                       0.02256
                     -33.20031                       8.59773                       0.00372
                     -36.88571                       9.55278                      -0.02171
                       0.12455                       0.12515                       0.00078
                       2.67590                       2.72158                       0.02606
                       5.35714                       5.45149                       0.05084
                       8.04133                       8.18553                       0.07259
                      10.72805                      10.92309                       0.09008
                      13.41689                      13.66358                       0.10214
                      16.10743                      16.40639                       0.10761
                      18.79924                      19.15091                       0.10533
                      21.49189                      21.89655                       0.09417
                      24.18493                      24.64271                       0.07283
                      26.87795                      27.38878                       0.04004
                       1.57459                      -0.00197                      -0.00050
                       2.55807                      -3.53368                       0.12612
                       3.59490                      -7.24805                       0.32506
                       4.63601                     -10.96887                       0.58017
                       5.68083                     -14.69504                       0.88008
                       6.72868                     -18.42549                       1.21393
                       7.77881                     -22.15918                       1.57146
                       8.83041                     -25.89507                       1.94322
                       9.88265                     -29.63213                       2.32067
                      10.93470                     -33.36934                       2.69642
                      11.98573                     -37.10564                       3.06433
                       1.35215                       0.21677                      -0.00050
                      -2.18575                       1.12889                      -0.15037
                      -5.89077                       2.08484                      -0.31250
                      -9.58846                       3.03959                      -0.47423
                     -13.28019                       3.99340                      -0.63045
                     -16.96735                       4.94655                      -0.77650
                     -20.65132                       5.89929                      -0.90834
                     -24.33348                       6.85184                      -1.02263
                     -28.01525                       7.80441                      -1.11688
                     -31.69800                       8.75718                      -1.18974
                     -35.38314                       9.71026                      -1.24079
                       1.65281                       0.30004                      -0.00050
                       4.21985                       2.91657                      -0.20611
                       6.91836                       5.66741                      -0.42730
                       9.62034                       8.42197                      -0.64872
                      12.32511                      11.17934                      -0.86513