# vtk DataFile Version 2.0

ASCII
 
DATASET POLYDATA
POINTS 40 double
  0.44122161E-002  0.73674199E-003  0.11318264E+003
 -0.20536792E+002 -0.74042855E+000  0.10094483E+003
 -0.35021215E+002 -0.12636615E+001  0.88702773E+002
 -0.47148796E+002 -0.17028853E+001  0.76457799E+002
 -0.53212768E+002 -0.19233810E+001  0.64214947E+002
 -0.53212689E+002 -0.19233831E+001  0.51972794E+002
 -0.47148054E+002 -0.17046630E+001  0.39730362E+002
 -0.35020973E+002 -0.12646511E+001  0.27484613E+002
 -0.20537922E+002 -0.74100218E+000  0.15242145E+002
  0.59586345E-004  0.11894156E-004  0.30000384E+001
 -0.44926533E+001 -0.16174737E+000  0.11318191E+003
 -0.20698518E+002  0.36688569E+001  0.10094575E+003
 -0.35137403E+002  0.18310267E+001  0.88704736E+002
 -0.47239764E+002  0.75089808E+000  0.76458729E+002
 -0.53295258E+002  0.33088629E+000  0.64215182E+002
 -0.53296393E+002  0.37472891E+000  0.51972031E+002
 -0.47240955E+002  0.89396808E+000  0.39728586E+002
 -0.35143423E+002  0.21587782E+001  0.27484352E+002
 -0.20699633E+002  0.37560913E+001  0.15242123E+002
 -0.16225865E+000  0.44970835E+001  0.30000196E+001
 -0.43264219E+001 -0.80993894E-001  0.11318273E+003
 -0.20455902E+002  0.40413479E+001  0.10094144E+003
 -0.34923700E+002  0.24649256E+001  0.88699313E+002
 -0.47047736E+002  0.16046064E+001  0.76455982E+002
 -0.53111837E+002  0.12951849E+001  0.64213178E+002
 -0.53112453E+002  0.13390719E+001  0.51970446E+002
 -0.47049167E+002  0.17489713E+001  0.39727666E+002
 -0.34927954E+002  0.27933811E+001  0.27484937E+002
 -0.20456870E+002  0.41289637E+001  0.15242437E+002
  0.90904349E-001  0.44992720E+001  0.30000040E+001
 -0.41560000E+001  0.82663659E-015  0.11318291E+003
 -0.20207200E+002  0.44122505E+001  0.10094036E+003
 -0.34700324E+002  0.30968692E+001  0.88697816E+002
 -0.46839144E+002  0.24554692E+001  0.76455271E+002
 -0.52908554E+002  0.22557761E+001  0.64212725E+002
 -0.52908554E+002  0.22996360E+001  0.51970180E+002
 -0.46839144E+002  0.26002918E+001  0.39727634E+002
 -0.34700324E+002  0.34256185E+001  0.27485089E+002
 -0.20207200E+002  0.45000000E+001  0.15242543E+002
  0.34400000E+000  0.45000000E+001  0.29999979E+001
  
POLYGONS 27 135
      4      0      1     11     10
      4      1      2     12     11
      4      2      3     13     12
      4      3      4     14     13
      4      4      5     15     14
      4      5      6     16     15
      4      6      7     17     16
      4      7      8     18     17
      4      8      9     19     18
      4     10     11     21     20
      4     11     12     22     21
      4     12     13     23     22
      4     13     14     24     23
      4     14     15     25     24
      4     15     16     26     25
      4     16     17     27     26
      4     17     18     28     27
      4     18     19     29     28
      4     20     21     31     30
      4     21     22     32     31
      4     22     23     33     32
      4     23     24     34     33
      4     24     25     35     34
      4     25     26     36     35
      4     26     27     37     36
      4     27     28     38     37
      4     28     29     39     38
  
CELL_DATA 27
SCALARS Gamma double
LOOKUP_TABLE default
 -0.20358333E-002
 -0.50129804E-001
 -0.43769850E-001
 -0.45116199E-001
 -0.47341231E-001
 -0.45934438E-001
 -0.45782683E-001
 -0.51804677E-001
 -0.27059359E-001
 -0.20358333E-002
 -0.50129804E-001
 -0.43769850E-001
 -0.45116199E-001
 -0.47341231E-001
 -0.45934438E-001
 -0.45782683E-001
 -0.51804677E-001
 -0.27059359E-001
 -0.00000000E+000
 -0.00000000E+000
 -0.00000000E+000
 -0.00000000E+000
 -0.00000000E+000
 -0.00000000E+000
 -0.00000000E+000
 -0.00000000E+000
 -0.00000000E+000
POINT_DATA 40
VECTORS Uconv double
  0.00000000E+000  0.00000000E+000  0.00000000E+000
  0.00000000E+000  0.00000000E+000  0.00000000E+000
  0.00000000E+000  0.00000000E+000  0.00000000E+000
  0.00000000E+000  0.00000000E+000  0.00000000E+000
  0.00000000E+000  0.00000000E+000  0.00000000E+000
  0.00000000E+000  0.00000000E+000  0.00000000E+000
  0.00000000E+000  0.00000000E+000  0.00000000E+000
  0.00000000E+000  0.00000000E+000  0.00000000E+000
  0.00000000E+000  0.00000000E+000  0.00000000E+000
  0.00000000E+000  0.00000000E+000  0.00000000E+000
  0.00000000E+000  0.00000000E+000  0.00000000E+000
  0.00000000E+000  0.00000000E+000  0.00000000E+000
  0.00000000E+000  0.00000000E+000  0.00000000E+000
  0.00000000E+000  0.00000000E+000  0.00000000E+000
  0.00000000E+000  0.00000000E+000  0.00000000E+000
  0.00000000E+000  0.00000000E+000  0.00000000E+000
  0.00000000E+000  0.00000000E+000  0.00000000E+000
  0.00000000E+000  0.00000000E+000  0.00000000E+000
  0.00000000E+000  0.00000000E+000  0.00000000E+000
  0.00000000E+000  0.00000000E+000  0.00000000E+000
  0.17200000E+002  0.00000000E+000  0.00000000E+000
  0.17200000E+002  0.00000000E+000  0.00000000E+000
  0.17200000E+002  0.00000000E+000  0.00000000E+000
  0.17200000E+002  0.00000000E+000  0.00000000E+000
  0.17200000E+002  0.00000000E+000  0.00000000E+000
  0.17200000E+002  0.00000000E+000  0.00000000E+000
  0.17200000E+002  0.00000000E+000  0.00000000E+000
  0.17200000E+002  0.00000000E+000  0.00000000E+000
  0.17200000E+002  0.00000000E+000  0.00000000E+000
  0.17200000E+002  0.00000000E+000  0.00000000E+000
  0.17200000E+002  0.00000000E+000  0.00000000E+000
  0.17200000E+002  0.00000000E+000  0.00000000E+000
  0.17200000E+002  0.00000000E+000  0.00000000E+000
  0.17200000E+002  0.00000000E+000  0.00000000E+000
  0.17200000E+002  0.00000000E+000  0.00000000E+000
  0.17200000E+002  0.00000000E+000  0.00000000E+000
  0.17200000E+002  0.00000000E+000  0.00000000E+000
  0.17200000E+002  0.00000000E+000  0.00000000E+000
  0.17200000E+002  0.00000000E+000  0.00000000E+000
  0.17200000E+002  0.00000000E+000  0.00000000E+000
