<?xml version="1.0"?>
<VTKFile type="PolyData" version="0.1" byte_order="LittleEndian">
  <PolyData>
    <Piece NumberOfPoints="     10" NumberOfVerts="  0" NumberOfLines="      9"
           NumberOfStrips="  0" NumberOfPolys="      0">
      <Points>
        <DataArray type="Float32" NumberOfComponents="3" format="ascii">
                       0.05486                      -0.08369                      15.12034
                       1.33203                      -2.04329                      15.12124
                       2.60925                      -4.00285                      15.12215
                       3.88651                      -5.96238                      15.12302
                       5.16388                      -7.92184                      15.12380
                       6.44092                      -9.88159                      15.12521
                       7.71829                     -11.84103                      15.12579
                       8.99566                     -13.80047                      15.12626
                      10.27301                     -15.75991                      15.12653
                      11.55033                     -17.71935                      15.12652
        </DataArray>
      </Points>
      <PointData>
        <DataArray type="Float32" Name="TranslationalVelocity" NumberOfComponents="3" format="ascii">
                       0.15716                       0.10185                       0.00727
                       3.69005                       2.40428                       0.08995
                       7.22429                       4.70776                       0.16990
                      10.75956                       7.01207                       0.24275
                      14.29546                       9.31715                       0.30471
                      17.83264                      11.62255                       0.35158
                      21.36906                      13.92842                       0.38047
                      24.90530                      16.23436                       0.39044
                      28.44102                      18.54022                       0.38092
                      31.97595                      20.84578                       0.35279
        </DataArray>
        <DataArray type="Float32" Name="RotationalVelocity" NumberOfComponents="3" format="ascii">
                      -0.04065                      -0.00198                       1.80221
                      -0.03954                      -0.00370                       1.80292
                      -0.03699                      -0.00455                       1.80353
                      -0.03321                      -0.00454                       1.80401
                      -0.02833                      -0.00378                       1.80436
                      -0.01584                      -0.00042                       1.80470
                      -0.00864                       0.00187                       1.80468
                      -0.00128                       0.00425                       1.80454
                       0.00621                       0.00681                       1.80427
                       0.01268                       0.00867                       1.80386
        </DataArray>
        <DataArray type="Float32" Name="TranslationalAcceleration" NumberOfComponents="3" format="ascii">
                      -1.11945                      -0.17166                       0.20529
                      -1.39387                       0.43275                       3.04847
                      -1.38439                       0.81391                       5.63422
                      -1.28372                       1.26019                       7.41242
                      -1.09942                       1.76954                       8.11547
                       3.63567                      -3.42123                       6.14398
                       3.99506                      -2.75187                       3.83912
                       4.37905                      -2.04268                       1.23323
                       4.75557                      -1.29224                      -1.41454
                       5.11392                      -0.51453                      -4.07950
        </DataArray>
        <DataArray type="Float32" Name="OrientationX" NumberOfComponents="3" format="ascii">
                      -0.00001                       0.00010                       1.00000
                      -0.00001                       0.00011                       1.00000
                      -0.00001                       0.00011                       1.00000
                       0.00000                       0.00010                       1.00000
                       0.00003                       0.00006                       1.00000
                       0.00001                       0.00000                       1.00000
                       0.00001                       0.00002                       1.00000
                       0.00000                       0.00004                       1.00000
                      -0.00000                       0.00005                       1.00000
                       0.00001                      -0.00001                       1.00000
        </DataArray>
        <DataArray type="Float32" Name="OrientationY" NumberOfComponents="3" format="ascii">
                      -0.83796                      -0.54573                       0.00005
                      -0.83794                      -0.54576                       0.00005
                      -0.83791                      -0.54580                       0.00006
                      -0.83788                      -0.54586                       0.00006
                      -0.83779                      -0.54600                       0.00006
                      -0.83749                      -0.54646                       0.00001
                      -0.83749                      -0.54645                       0.00002
                      -0.83751                      -0.54643                       0.00002
                      -0.83752                      -0.54640                       0.00003
                      -0.83759                      -0.54629                       0.00000
        </DataArray>
        <DataArray type="Float32" Name="OrientationZ" NumberOfComponents="3" format="ascii">
                       0.54573                      -0.83796                       0.00009
                       0.54576                      -0.83794                       0.00010
                       0.54580                      -0.83791                       0.00010
                       0.54586                      -0.83788                       0.00008
                       0.54600                      -0.83779                       0.00003
                       0.54646                      -0.83749                      -0.00001
                       0.54645                      -0.83749                       0.00002
                       0.54643                      -0.83751                       0.00003
                       0.54640                      -0.83752                       0.00004
                       0.54629                      -0.83759                      -0.00001
        </DataArray>
      </PointData>
      <Lines>
        <DataArray type="Int32" Name="connectivity" format="ascii">
      0      1
      1      2
      2      3
      3      4
      4      5
      5      6
      6      7
      7      8
      8      9
        </DataArray>
        <DataArray type="Int32" Name="offsets" format="ascii">
      2
      4
      6
      8
     10
     12
     14
     16
     18
        </DataArray>
      </Lines>
    </Piece>
  </PolyData>
</VTKFile>
