<?xml version="1.0"?>
<VTKFile type="PolyData" version="0.1" byte_order="LittleEndian">
  <PolyData>
    <Piece NumberOfPoints="    165" NumberOfVerts="  0" NumberOfLines="      0"
           NumberOfStrips="  0" NumberOfPolys="      0">
      <Points>
        <DataArray type="Float32" NumberOfComponents="3" format="ascii">
                       0.41735                       0.09494                     113.18030
                      -6.19762                      -2.27785                     109.63333
                     -12.36882                      -4.49649                     106.09669
                     -18.08754                      -6.56188                     102.55424
                     -19.71473                      -7.15183                     101.49011
                     -23.34851                      -8.47378                      98.99759
                     -28.13412                     -10.22329                      95.39957
                     -32.43376                     -11.80641                      91.75224
                     -36.24257                     -13.22165                      88.05942
                     -39.56548                     -14.46985                      84.33653
                     -42.41563                     -15.55347                      80.60345
                     -44.81002                     -16.47534                      76.87728
                     -46.76228                     -17.23653                      73.16637
                     -48.28014                     -17.83579                      69.47132
                     -49.36653                     -18.27022                      65.78846
                     -50.01999                     -18.53574                      62.11256
                     -50.23739                     -18.62856                      58.43935
                     -50.01714                     -18.54654                      54.76607
                     -49.35919                     -18.28934                      51.09041
                     -48.26538                     -17.85865                      47.40936
                     -46.73724                     -17.25735                      43.71896
                     -44.77402                     -16.48857                      40.01550
                     -42.37218                     -15.55530                      36.29705
                     -39.52391                     -14.45953                      32.56610
                     -36.21843                     -13.20226                      28.83062
                     -32.44618                     -11.78460                      25.10118
                     -28.20083                     -10.20757                      21.38821
                     -23.48251                      -8.47264                      17.69593
                     -19.90143                      -7.16546                      15.12127
                     -18.29729                      -6.58272                      14.01918
                     -12.65304                      -4.54204                      10.34652
                      -6.55336                      -2.34905                       6.67367
                       0.00015                       0.00002                       3.00020
                       0.41735                       0.09494                     113.18030
                       1.59808                       6.92334                     109.44406
                       2.68636                      13.26997                     105.69447
                       3.69435                      19.15514                     101.96971
                       3.98234                      20.83365                     100.86145
                       4.63081                      24.60520                      98.30620
                       5.49551                      29.63049                      94.71042
                       6.28452                      34.20630                      91.13817
                       6.99433                      38.30635                      87.55244
                       7.62113                      41.90594                      83.92874
                       8.16219                      44.99001                      80.26176
                       8.61673                      47.55750                      76.56259
                       8.98582                      49.61896                      72.84905
                       9.27143                      51.19027                      69.13677
                       9.47557                      52.28822                      65.43537
                       9.59978                      52.92739                      61.74753
                       9.64470                      53.11779                      58.07004
                       9.60998                      52.86348                      54.39632
                       9.49434                      52.16309                      50.71940
                       9.29584                      51.01102                      47.03422
                       9.01228                      49.39930                      43.33904
                       8.64126                      47.31780                      39.63652
                       8.18024                      44.75454                      35.93468
                       7.62722                      41.69907                      32.24505
                       6.98139                      38.14634                      28.57813
                       6.24360                      34.09954                      24.93743
                       5.41638                      29.57043                      21.31403
                       4.50285                      24.57410                      17.68933
                       3.81342                      20.80543                      15.14017
                       3.50554                      19.12247                      14.04340
                       2.42407                      13.21309                      10.37592
                       1.25654                       6.84097                       6.69161
                       0.00015                       0.00002                       3.00020
                       0.41735                       0.09494                     113.18030
                       5.66098                      -4.42567                     109.43155
                      10.52662                      -8.63318                     105.66994
                      15.03640                     -12.53636                     101.93419
                      16.32282                     -13.64954                     100.82296
                      19.21468                     -16.15137                      98.26278
                      23.07032                     -19.48781                      94.66581
                      26.58585                     -22.52878                      91.09904
                      29.74260                     -25.25525                      87.52413
                      32.52177                     -27.64836                      83.91342
                      34.90985                     -29.69470                      80.25740
                      36.90213                     -31.38981                      76.56351
                      38.50317                     -32.73860                      72.84888
                      39.72383                     -33.75249                      69.13152
                      40.57747                     -34.44612                      65.42438
                      41.07691                     -34.83452                      61.73267
                      41.23133                     -34.92977                      58.05384
                      41.04410                     -34.73877                      54.38034
                      40.51294                     -34.26291                      50.70349
                      39.63036                     -33.49805                      47.01734
                      38.38616                     -32.43646                      43.32106
                      36.76928                     -31.06842                      39.61988
                      34.76986                     -29.38421                      35.92411
                      32.38306                     -27.37739                      32.24462
                      29.61018                     -25.04630                      28.58795
                      26.45782                     -22.39370                      24.95319
                      22.93688                     -19.42635                      21.32916
                      19.05787                     -16.15153                      17.69955
                      16.13294                     -13.67866                      15.14803
                      14.82671                     -12.57312                      14.05143
                      10.24116                      -8.68809                      10.38656
                       5.30019                      -4.49720                       6.70189
                       0.00015                       0.00002                       3.00020
                      -0.09457                      -0.03375                      15.12072
                      -1.99219                      -0.71202                      15.12087
                      -3.98342                      -1.42552                      15.12136
                      -5.97413                      -2.14042                      15.12194
                      -7.96442                      -2.85651                      15.12239
                      -9.95436                      -3.57355                      15.12260
                     -11.94401                      -4.29134                      15.12252
                     -13.93347                      -5.00964                      15.12216
                     -15.92280                      -5.72824                      15.12163
                     -17.91210                      -6.44692                      15.12121
                     -19.90143                      -7.16546                      15.12127
                       0.01767                       0.09816                      15.12072
                       0.38047                       2.08049                      15.12820
                       0.76147                       4.16115                      15.13573
                       1.14264                       6.24177                      15.14244
                       1.52396                       8.32237                      15.14791
                       1.90539                      10.40294                      15.15177
                       2.28692                      12.48349                      15.15377
                       2.66851                      14.56401                      15.15371
                       3.05014                      16.64451                      15.15149
                       3.43179                      18.72498                      15.14699
                       3.81342                      20.80543                      15.14017
                       0.07579                      -0.06500                      15.12072
                       1.61152                      -1.36977                      15.12945
                       3.22394                      -2.73873                      15.13818
                       4.83679                      -4.10718                      15.14598
                       6.44999                      -5.47521                      15.15243
                       8.06349                      -6.84289                      15.15716
                       9.67721                      -8.21029                      15.15991
                      11.29109                      -9.57749                      15.16047
                      12.90505                     -10.94457                      15.15873
                      14.51902                     -12.31160                      15.15460
                      16.13294                     -13.67866                      15.14803
                       0.08533                      -0.01057                     101.06349
                      -1.81142                      -0.69122                     101.08028
                      -3.80183                      -1.40675                     101.10775
                      -5.79179                      -2.12322                     101.14356
                      -7.78135                      -2.84049                     101.18597
                      -9.77058                      -3.55839                     101.23333
                     -11.75957                      -4.27676                     101.28405
                     -13.74839                      -4.99545                     101.33660
                     -15.73713                      -5.71429                     101.38950
                     -17.72588                      -6.43314                     101.44118
                     -19.71473                      -7.15183                     101.49011
                       0.19757                       0.12135                     101.06349
                       0.55803                       2.10437                     101.04047
                       0.93714                       4.18565                     101.01544
                       1.31692                       6.26680                     100.99004
                       1.69723                       8.34785                     100.96490
                       2.07793                      10.42883                     100.94066
                       2.45889                      12.50977                     100.91807
                       2.83996                      14.59070                     100.89791
                       3.22099                      16.67164                     100.88105
                       3.60184                      18.75261                     100.86852
                       3.98234                      20.83365                     100.86145
                       0.25570                      -0.04181                     101.06349
                       1.79341                      -1.34477                     101.03729
                       3.40764                      -2.71213                     101.00882
                       5.02204                      -4.07928                     100.97984
                       6.63656                      -5.44629                     100.95092
                       8.25114                      -6.81322                     100.92272
                       9.86572                      -8.18016                     100.89599
                      11.48025                      -9.54718                     100.87158
                      13.09465                     -10.91436                     100.85046
                      14.70887                     -12.28179                     100.83382
                      16.32282                     -13.64954                     100.82296
        </DataArray>
      </Points>
      <PointData>
        <DataArray type="Float32" Name="TranslationalVelocity" NumberOfComponents="3" format="ascii">
                       3.46384                       0.87259                      -0.01679
                       7.39715                     -11.22955                       0.74053
                      10.96089                     -22.59697                       1.64691
                      14.19913                     -33.23050                       2.61075
                      15.10963                     -36.27847                       2.90550
                      17.12988                     -43.12619                       3.58322
                      19.81059                     -52.20919                       4.42363
                      22.34910                     -60.42269                       4.98914
                      24.85929                     -67.72446                       5.19372
                      27.40332                     -74.09923                       5.05465
                      29.95366                     -79.56535                       4.68568
                      32.40131                     -84.16438                       4.24023
                      34.60657                     -87.93420                       3.84301
                      36.44611                     -90.89172                       3.55822
                      37.83332                     -93.03111                       3.39457
                      38.71844                     -94.32903                       3.32578
                      39.08048                     -94.75760                       3.31083
                      38.92357                     -94.29588                       3.30744
                      38.27047                     -92.93437                       3.28087
                      37.15567                     -90.67870                       3.20733
                      35.61191                     -87.54808                       3.07026
                      33.66748                     -83.57037                       2.85543
                      31.35120                     -78.77552                       2.55108
                      28.69239                     -73.18702                       2.14927
                      25.72929                     -66.81644                       1.65682
                      22.52048                     -59.66247                       1.11613
                      19.13266                     -51.71125                       0.60687
                      15.61652                     -42.94728                       0.22110
                      13.09699                     -36.32534                       0.07235
                      12.00461                     -33.36901                       0.04169
                       8.24092                     -23.01665                      -0.00371
                       4.25413                     -11.89914                      -0.00188
                       0.00004                      -0.00044                       0.00012
                       3.46384                       0.87259                      -0.01679
                      -9.34737                       2.95915                      -0.24954
                     -21.34568                       4.81112                      -0.59594
                     -32.50761                       6.54438                      -0.87699
                     -35.69234                       7.05253                      -0.93457
                     -42.84290                       8.23862                      -0.99769
                     -52.37485                       9.92367                      -0.93142
                     -61.05649                      11.57763                      -0.72581
                     -68.83268                      13.16363                      -0.44824
                     -75.65423                      14.61360                      -0.18552
                     -81.49242                      15.84876                      -0.00525
                     -86.34477                      16.81161                       0.07101
                     -90.22904                      17.48100                       0.06156
                     -93.17181                      17.86983                       0.00452
                     -95.20184                      18.01962                      -0.05928
                     -96.34736                      17.98310                      -0.10156
                     -96.63288                      17.80650                      -0.11218
                     -96.07594                      17.52475                      -0.09592
                     -94.68681                      17.15849                      -0.06733
                     -92.46870                      16.71591                      -0.04523
                     -89.42062                      16.18920                      -0.04549
                     -85.53696                      15.55439                      -0.07343
                     -80.80649                      14.77926                      -0.12119
                     -75.21726                      13.82993                      -0.16783
                     -68.76257                      12.68259                      -0.18743
                     -61.44451                      11.33691                      -0.16808
                     -53.27623                       9.81105                      -0.11826
                     -44.27528                       8.12943                      -0.06151
                     -37.48658                       6.87247                      -0.03469
                     -34.45428                       6.31549                      -0.02890
                     -23.80674                       4.36554                      -0.01849
                     -12.32602                       2.26301                      -0.01067
                       0.00004                      -0.00044                       0.00012
                       3.46384                       0.87259                      -0.01679
                      11.25225                      10.42174                      -0.64223
                      18.39587                      19.28301                      -1.31841
                      25.03594                      27.44339                      -1.83159
                      26.94617                      29.75400                      -1.93525
                      31.30916                      34.88729                      -2.02745
                      37.27426                      41.58008                      -1.84618
                      42.85329                      47.53453                      -1.42986
                      47.95673                      52.77693                      -0.92897
                      52.47133                      57.35781                      -0.49749
                      56.28794                      61.34413                      -0.24098
                      59.33595                      64.79775                      -0.18488
                      61.60620                      67.75429                      -0.28207
                      63.14642                      70.21564                      -0.45057
                      64.04339                      72.15123                      -0.61032
                      64.39838                      73.50802                      -0.70984
                      64.29652                      74.22703                      -0.73747
                      63.78801                      74.25392                      -0.71428
                      62.88386                      73.54609                      -0.67871
                      61.55401                      72.07909                      -0.66784
                      59.73651                      69.85033                      -0.69952
                      57.35228                      66.87595                      -0.76130
                      54.32690                      63.18174                      -0.81289
                      50.61817                      58.79353                      -0.80624
                      46.22538                      53.73216                      -0.70841
                      41.18576                      48.01082                      -0.52036
                      35.56490                      41.63439                      -0.28810
                      29.42790                      34.60162                      -0.08221
                      24.84895                      29.28609                       0.01025
                      22.81671                      26.91081                       0.03472
                      15.71328                      18.58023                       0.08593
                       8.10698                       9.61442                       0.08154
                       0.00004                      -0.00044                       0.00012
                       0.07235                      -0.17335                       0.00033
                       1.29999                      -3.60598                       0.00072
                       2.59535                      -7.21894                      -0.00260
                       3.89677                     -10.84076                      -0.00781
                       5.20329                     -14.47006                      -0.01292
                       6.51399                     -18.10543                      -0.01592
                       7.82791                     -21.74551                      -0.01477
                       9.14412                     -25.38890                      -0.00741
                      10.46166                     -29.03425                       0.00824
                      11.77960                     -32.68018                       0.03416
                      13.09699                     -36.32534                       0.07235
                      -0.16526                       0.02881                       0.00033
                      -3.74190                       0.68364                      -0.00128
                      -7.49476                       1.37110                      -0.00288
                     -11.24645                       2.05866                      -0.00453
                     -14.99710                       2.74630                      -0.00641
                     -18.74685                       3.43401                      -0.00872
                     -22.49582                       4.12174                      -0.01169
                     -26.24415                       4.80948                      -0.01564
                     -29.99197                       5.49718                      -0.02089
                     -33.73940                       6.18487                      -0.02729
                     -37.48658                       6.87247                      -0.03469
                       0.12862                       0.13350                       0.00033
                       2.48637                       2.90820                       0.01844
                       4.96402                       5.82606                       0.03594
                       7.44430                       8.74882                       0.05103
                       9.92683                      11.67577                       0.06280
                      12.41126                      14.60621                       0.07034
                      14.89722                      17.53944                       0.07272
                      17.38434                      20.47473                       0.06897
                      19.87226                      23.41141                       0.05809
                      22.36058                      26.34875                       0.03891
                      24.84895                      29.28609                       0.01025
                       1.97119                       0.01776                      -0.00417
                       3.21196                      -3.43964                       0.11958
                       4.52013                      -7.07508                       0.30582
                       5.83375                     -10.71606                       0.54111
                       7.15212                     -14.36158                       0.81689
                       8.47438                     -18.01067                       1.12503
                       9.79959                     -21.66243                       1.45785
                      11.12676                     -25.31596                       1.80824
                      12.45485                     -28.97040                       2.16980
                      13.78282                     -32.62487                       2.53706
                      15.10963                     -36.27847                       2.90550
                       1.73359                       0.21992                      -0.00417
                      -1.86894                       0.87399                      -0.09807
                      -5.64233                       1.56041                      -0.20242
                      -9.40890                       2.24677                      -0.30951
                     -13.16994                       2.93313                      -0.41629
                     -16.92675                       3.61953                      -0.52005
                     -20.68062                       4.30601                      -0.61851
                     -24.43284                       4.99257                      -0.70986
                     -28.18470                       5.67920                      -0.79292
                     -31.93745                       6.36589                      -0.86761
                     -35.69234                       7.05253                      -0.93457
                       2.02747                       0.32462                      -0.00417
                       4.40169                       3.12791                      -0.21136
                       6.89782                       6.07631                      -0.43423
                       9.39753                       9.02978                      -0.65845
                      11.90020                      11.98720                      -0.87986