<?xml version="1.0"?>
<VTKFile type="PolyData" version="0.1" byte_order="LittleEndian">
  <PolyData>
    <Piece NumberOfPoints="    165" NumberOfVerts="  0" NumberOfLines="      0"
           NumberOfStrips="  0" NumberOfPolys="      0">
      <Points>
        <DataArray type="Float32" NumberOfComponents="3" format="ascii">
                       0.00441                       0.00074                     113.18264
                      -6.95390                      -0.25039                     109.51201
                     -13.43202                      -0.48421                     105.84061
                     -19.43010                      -0.70080                     102.16879
                     -21.13598                      -0.76243                     101.06728
                     -24.94835                      -0.90023                      98.49697
                     -29.98628                      -1.08240                      94.82441
                     -34.54387                      -1.24729                      91.15118
                     -38.62140                      -1.39487                      87.47775
                     -42.21910                      -1.52510                      83.80439
                     -45.33694                      -1.63798                      80.13107
                     -47.97507                      -1.73352                      76.45792
                     -50.13349                      -1.81172                      72.78489
                     -51.81217                      -1.87260                      69.11195
                     -53.01136                      -1.91614                      65.43920
                     -53.73108                      -1.94230                      61.76653
                     -53.97099                      -1.95107                      58.09386
                     -53.73100                      -1.94246                      54.42120
                     -53.01113                      -1.91645                      50.74857
                     -51.81171                      -1.87305                      47.07590
                     -50.13283                      -1.81231                      43.40309
                     -47.97437                      -1.73420                      39.73013
                     -45.33643                      -1.63871                      36.05690
                     -42.21892                      -1.52582                      32.38340
                     -38.62158                      -1.39551                      28.70980
                     -34.54447                      -1.24779                      25.03604
                     -29.98720                      -1.08273                      21.36260
                     -24.94935                      -0.90040                      17.69014
                     -21.13714                      -0.76255                      15.11974
                     -19.43141                      -0.70092                      14.01807
                     -13.43393                      -0.48440                      10.34562
                      -6.95680                      -0.25079                       6.67289
                       0.00006                       0.00001                       3.00004
                       0.00441                       0.00074                     113.18264
                       3.26460                       6.15241                     109.51031
                       6.29979                      11.87884                     105.83623
                       9.11009                      17.18018                     102.16101
                       9.90944                      18.68794                     101.05867
                      11.69668                      22.05892                      98.48863
                      14.05970                      26.51559                      94.81951
                      16.19787                      30.54785                      91.14973
                      18.11060                      34.15475                      87.47810
                      19.79795                      37.33656                      83.80525
                      21.26019                      40.09386                      80.13202
                      22.49739                      42.42683                      76.45868
                      23.50952                      44.33547                      72.78527
                      24.29663                      45.81982                      69.11184
                      24.85871                      46.87986                      65.43842
                      25.19584                      47.51569                      61.76508
                      25.30813                      47.72753                      58.09182
                      25.19563                      47.51543                      54.41859
                      24.85832                      46.87935                      50.74529
                      24.29608                      45.81908                      47.07193
                      23.50885                      44.33454                      43.39856
                      22.49665                      42.42574                      39.72516
                      21.25941                      40.09261                      36.05182
                      19.79714                      37.33510                      32.37864
                      18.10980                      34.15312                      28.70574
                      16.19715                      30.54618                      25.03387
                      14.05915                      26.51417                      21.36346
                      11.69626                      22.05793                      17.69346
                       9.90885                      18.68697                      15.12335
                       9.10927                      17.17901                      14.02132
                       6.29795                      11.87703                      10.34735
                       3.26160                       6.15075                       6.67346
                       0.00006                       0.00001                       3.00004
                       0.00441                       0.00074                     113.18264
                       3.69889                      -5.90031                     109.51031
                       7.13848                     -11.39353                     105.83655
                      10.32331                     -16.47902                     102.16181
                      11.22918                     -17.92535                     101.05956
                      13.25441                     -21.15871                      98.48929
                      15.93190                     -25.43312                      94.81941
                      18.35462                     -29.30052                      91.14909
                      20.52204                     -32.76019                      87.47737
                      22.43419                     -35.81231                      83.80468
                      24.09128                     -38.45730                      80.13167
                      25.49337                     -40.69527                      76.45852
                      26.64044                     -42.52619                      72.78526
                      27.53252                     -43.95009                      69.11193
                      28.16961                     -44.96697                      65.43861
                      28.55176                     -45.57695                      61.76533
                      28.67910                     -45.78019                      58.09212
                      28.55166                     -45.57673                      54.41892
                      28.16941                     -44.96654                      50.74568
                      27.53225                     -43.94944                      47.07240
                      26.64013                     -42.52533                      43.39913
                      25.49305                     -40.69423                      39.72588
                      24.09095                     -38.45607                      36.05276
                      22.43384                     -35.81084                      32.37981
                      20.52168                     -32.75854                      28.70713
                      18.35430                     -29.29886                      25.03521
                      15.93168                     -25.43177                      21.36428
                      13.25425                     -21.15789                      17.69352
                      11.22878                     -17.92468                      15.12313
                      10.32266                     -16.47824                      14.02113
                       7.13673                     -11.39245                      10.34743
                       3.69590                      -5.89971                       6.67367
                       0.00006                       0.00001                       3.00004
                      -0.09978                      -0.00356                      15.12025
                      -2.11358                      -0.07616                      15.12032
                      -4.22732                      -0.15239                      15.12046
                      -6.34106                      -0.22863                      15.12061
                      -8.45479                      -0.30489                      15.12073
                     -10.56852                      -0.38116                      15.12077
                     -12.68225                      -0.45744                      15.12072
                     -14.79598                      -0.53372                      15.12057
                     -16.90970                      -0.61001                      15.12032
                     -19.02342                      -0.68628                      15.12001
                     -21.13714                      -0.76255                      15.11974
                       0.04701                       0.08839                      15.12025
                       0.99106                       1.86873                      15.12055
                       1.98195                       3.73742                      15.12086
                       2.97283                       5.60611                      15.12117
                       3.96370                       7.47481                      15.12149
                       4.95457                       9.34351                      15.12183
                       5.94543                      11.21221                      15.12220
                       6.93629                      13.08090                      15.12258
                       7.92714                      14.94960                      15.12296
                       8.91800                      16.81829                      15.12325
                       9.90885                      18.68697                      15.12335
                       0.05324                      -0.08470                      15.12025
                       1.12302                      -1.79244                      15.12056
                       2.24589                      -3.58492                      15.12088
                       3.36875                      -5.37740                      15.12120
                       4.49162                      -7.16987                      15.12151
                       5.61448                      -8.96235                      15.12183
                       6.73735                     -10.75482                      15.12216
                       7.86021                     -12.54729                      15.12248
                       8.98307                     -14.33976                      15.12279
                      10.10593                     -16.13222                      15.12303
                      11.22878                     -17.92468                      15.12313
                      -0.09874                      -0.00335                     101.06303
                      -2.11253                      -0.07597                     101.06313
                      -4.22626                      -0.15222                     101.06332
                      -6.33999                      -0.22848                     101.06357
                      -8.45371                      -0.30475                     101.06389
                     -10.56744                      -0.38103                     101.06430
                     -12.68115                      -0.45731                     101.06480
                     -14.79487                      -0.53360                     101.06538
                     -16.90858                      -0.60989                     101.06606
                     -19.02228                      -0.68616                     101.06673
                     -21.13598                      -0.76243                     101.06728
                       0.04805                       0.08860                     101.06303
                       0.99208                       1.86899                     101.06315
                       1.98294                       3.73775                     101.06320
                       2.97378                       5.60651                     101.06313
                       3.96461                       7.47529                     101.06288
                       4.95543                       9.34407                     101.06243
                       5.94624                      11.21284                     101.06178
                       6.93704                      13.08162                     101.06096
                       7.92784                      14.95040                     101.06004
                       8.91864                      16.81917                     101.05920
                       9.90944                      18.68794                     101.05867
                       0.05428                      -0.08449                     101.06303
                       1.12407                      -1.79227                     101.06315
                       2.24692                      -3.58481                     101.06322
                       3.36974                      -5.37736                     101.06317
                       4.49255                      -7.16992                     101.06297
                       5.61534                      -8.96249                     101.06261
                       6.73812                     -10.75506                     101.06208
                       7.86090                     -12.54763                     101.06142
                       8.98366                     -14.34021                     101.06068
                      10.10642                     -16.13278                     101.06000
                      11.22918                     -17.92535                     101.05956
        </DataArray>
      </Points>
      <PointData>
        <DataArray type="Float32" Name="TranslationalVelocity" NumberOfComponents="3" format="ascii">
                       0.54353                       0.09338                      -0.02742
                       0.84327                     -12.48475                       0.22022
                       1.14875                     -24.19933                       0.39263
                       1.44353                     -35.05815                       0.52647
                       1.52457                     -38.15015                       0.56823
                       1.72130                     -45.06597                       0.64091
                       2.03605                     -54.21146                       0.65903
                       2.37763                     -62.49281                       0.60665
                       2.71783                     -69.90807                       0.52901
                       3.03552                     -76.45480                       0.45475
                       3.32512                     -82.13110                       0.38980
                       3.57484                     -86.93794                       0.34228
                       3.78166                     -90.87593                       0.31118
                       3.94445                     -93.94482                       0.29443
                       4.04510                     -96.14320                       0.29436
                       4.08683                     -97.46770                       0.30223
                       4.09739                     -97.91603                       0.30942
                       4.08779                     -97.48743                       0.31693
                       4.05508                     -96.18175                       0.32736
                       3.97154                     -94.00060                       0.33438
                       3.82403                     -90.94650                       0.32721
                       3.61721                     -87.01900                       0.30025
                       3.34478                     -82.21632                       0.24247
                       3.01587                     -76.53722                       0.15238
                       2.65142                     -69.98078                       0.04329
                       2.26517                     -62.54961                      -0.07178
                       1.90172                     -54.24921                      -0.13507
                       1.58888                     -45.08793                      -0.09655
                       1.37301                     -38.16735                      -0.03910
                       1.27046                     -35.07597                      -0.02134
                       0.89144                     -24.22837                       0.00918
                       0.46590                     -12.53973                       0.01059
                       0.00558                       0.00115                       0.00338
                       0.54353                       0.09338                      -0.02742
                     -10.68287                       6.10254                      -0.01066
                     -21.15730                      11.59224                      -0.18022
                     -30.85269                      16.59317                      -0.44145
                     -33.59792                      18.02312                      -0.49243
                     -39.65591                      21.35005                      -0.40046
                     -47.54534                      25.93112                       0.00276
                     -54.64825                      30.10110                       0.36583
                     -61.03798                      33.73359                       0.52613
                     -66.72088                      36.83495                       0.52473
                     -71.67183                      39.46893                       0.45946
                     -75.87684                      41.67116                       0.37855
                     -79.33329                      43.44950                       0.29340
                     -82.03870                      44.80781                       0.20984
                     -83.98904                      45.75003                       0.13450
                     -85.17390                      46.29213                       0.07390
                     -85.58045                      46.45626                       0.02658
                     -85.20396                      46.24989                      -0.01786
                     -84.04713                      45.66726                      -0.07030
                     -82.12098                      44.68739                      -0.13376
                     -79.43342                      43.29691                      -0.20567
                     -75.98669                      41.49316                      -0.28367
                     -71.78552                      39.26682                      -0.35884
                     -66.83492                      36.60700                      -0.41696
                     -61.14640                      33.48836                      -0.42278
                     -54.74124                      29.86393                      -0.29988
                     -47.61258                      25.74211                      -0.02901
                     -39.70610                      21.22803                       0.25639
                     -33.67256                      17.90746                       0.34197
                     -30.95672                      16.45348                       0.33206
                     -21.39067                      11.37682                       0.23197
                     -11.06119                       5.90205                       0.10079
                       0.00558                       0.00115                       0.00338
                       0.54353                       0.09338                      -0.02742
                      11.03232                       6.59739                      -0.00548
                      20.77788                      12.74112                      -0.13703
                      29.80844                      18.50521                      -0.34644
                      32.38900                      20.14187                      -0.38893
                      38.23104                      23.70419                      -0.32064
                      46.06551                      28.27433                      -0.00062
                      53.19259                      32.38586                       0.29771
                      59.54250                      36.13313                       0.44184
                      65.10743                      39.51421                       0.45797
                      69.90958                      42.48370                       0.42004
                      73.96034                      45.01784                       0.36385
                      77.26038                      47.11349                       0.29747
                      79.81197                      48.76712                       0.22756
                      81.61896                      49.97267                       0.16233
                      82.69116                      50.71504                       0.10863
                      83.04125                      50.97591                       0.06563
                      82.67357                      50.74963                       0.02475
                      81.58511                      50.04172                      -0.02272
                      79.76451                      48.87026                      -0.07840
                      77.20422                      47.24817                      -0.13839
                      73.90140                      45.18002                      -0.19780
                      69.85031                      42.67319                      -0.24664
                      65.04730                      39.73246                      -0.27414
                      59.48372                      36.37066                      -0.25712
                      53.14258                      32.61401                      -0.14528
                      46.03388                      28.44923                       0.06463
                      38.20778                      23.80281                       0.26949
                      32.33307                      20.21840                       0.32489
                      29.71917                      18.59405                       0.31595
                      20.54692                      12.86147                       0.23879
                      10.64964                       6.65908                       0.12180
                       0.00558                       0.00115                       0.00338
                       0.02091                      -0.17559                       0.01090
                       0.14955                      -3.80617                       0.01759
                       0.28472                      -7.61945                       0.03167
                       0.42007                     -11.43493                       0.04692
                       0.55561                     -15.25217                       0.05843
                       0.69135                     -19.07076                       0.06270
                       0.82730                     -22.89025                       0.05764
                       0.96347                     -26.71017                       0.04259
                       1.09988                     -30.53003                       0.01831
                       1.23635                     -34.34926                      -0.01082
                       1.37301                     -38.16735                      -0.03910
                      -0.14470                       0.08879                       0.01090
                      -3.35124                       1.79376                       0.04947
                      -6.71786                       3.58378                       0.09038
                     -10.08537                       5.37415                       0.13139
                     -13.45365                       7.16478                       0.17251
                     -16.82258                       8.95556                       0.21351
                     -20.19203                      10.74638                       0.25355
                     -23.56189                      12.53714                       0.29082
                     -26.93201                      14.32773                       0.32240
                     -30.30227                      16.11782                       0.34183
                     -33.67256                      17.90746                       0.34197
                       0.16707                       0.10003                       0.01090
                       3.24605                       2.02505                       0.05046
                       6.47810                       4.04582                       0.09187
                       9.71034                       6.06681                       0.13254
                      12.94268                       8.08800                       0.17220
                      16.17504                      10.10939                       0.21052
                      19.40730                      12.13094                       0.24674
                      22.63938                      14.15265                       0.27936
                      25.87114                      16.17447                       0.30601
                      29.10240                      18.19641                       0.32270
                      32.33307                      20.21840                       0.32489
                       0.15529                      -0.14832                       0.01976
                       0.28535                      -3.78139                       0.03317
                       0.42207                      -7.59684                       0.05802
                       0.55900                     -11.41404                       0.09306
                       0.69617                     -15.23260                       0.13828
                       0.83359                     -19.05213                       0.19406
                       0.97127                     -22.87225                       0.26046
                       1.10924                     -26.69255                       0.33643
                       1.24750                     -30.51261                       0.41896
                       1.38591                     -34.33194                       0.50012
                       1.52457                     -38.15015                       0.56823
                      -0.01033                       0.11606                       0.01976
                      -3.21893                       1.82743                       0.02616
                      -6.58930                       3.62501                       0.02506
                      -9.96179                       5.42363                       0.00927
                     -13.33595                       7.22301                      -0.02594
                     -16.71140                       9.02291                      -0.08261
                     -20.08781                      10.82312                      -0.15958
                     -23.46488                      12.62344                      -0.25186
                     -26.84238                      14.42371                      -0.35009
                     -30.22011                      16.22360                      -0.43758
                     -33.59792                      18.02312                      -0.49243
                       0.30145                       0.12730                       0.01976
                       3.38179                       2.04825                       0.02783
                       6.61185                       4.06250                       0.02964
                       9.83925                       6.07509                       0.01882
                      13.06450                       8.08641                      -0.00857