# vtk DataFile Version 2.0
BldPointCP.BldC
ASCII
 
DATASET POLYDATA
POINTS 9 double
  0.81972274E+001 -0.81486820E+001  0.10626922E+003
  0.19793164E+002 -0.20114385E+002  0.94498600E+002
  0.29131509E+002 -0.29691250E+002  0.82380156E+002
  0.35402295E+002 -0.36058750E+002  0.70124570E+002
  0.37374416E+002 -0.38004510E+002  0.58086987E+002
  0.35359007E+002 -0.35907097E+002  0.46070203E+002
  0.29078644E+002 -0.29536616E+002  0.33796675E+002
  0.19725576E+002 -0.20058771E+002  0.21597651E+002
  0.80337161E+001 -0.81745686E+001  0.98424685E+001
  
POINT_DATA 9
SCALARS Gamma_LL double
LOOKUP_TABLE default
  0.55995925E+002
  0.10318339E+003
  0.77152219E+002
  0.89152246E+002
  0.10240634E+003
  0.10226954E+003
  0.93821348E+002
  0.10775768E+003
  0.31223643E+002
VECTORS Vind_CP double
 -0.14105206E+000 -0.23770186E+000 -0.39479040E+000
 -0.15596572E+000  0.14169392E+000 -0.28234738E+000
 -0.22339221E+000  0.19924288E+000 -0.18334888E+000
 -0.52547199E+000  0.42883824E+000 -0.16897778E+000
 -0.76443454E+000  0.62148906E+000  0.15894060E-001
 -0.62066234E+000  0.51332449E+000  0.24202724E+000
 -0.31278865E+000  0.27939083E+000  0.27816091E+000
 -0.24420945E+000  0.20845804E+000  0.31815955E+000
 -0.86018344E-001 -0.51273025E-001  0.53989698E-001
VECTORS Vtot_CP double
 -0.15722702E-001 -0.15301447E+002  0.56989566E+000
 -0.21059920E+002 -0.35012800E+002  0.84182722E+000
 -0.38589590E+002 -0.50578711E+002 -0.24852017E+000
 -0.49831954E+002 -0.62113931E+002 -0.35752057E+000
 -0.52831861E+002 -0.66988776E+002  0.30710199E+000
 -0.49085355E+002 -0.63925117E+002  0.80769952E+000
 -0.37525016E+002 -0.52384104E+002  0.10131316E+001
 -0.19814696E+002 -0.35439574E+002  0.63042137E+000
  0.22861085E+001 -0.14619272E+002  0.19248343E-001
VECTORS Vstr_CP double
  0.17074671E+002  0.15063745E+002 -0.96468606E+000
  0.38103954E+002  0.35154494E+002 -0.11241746E+001
  0.55566197E+002  0.50777954E+002  0.65171292E-001
  0.66506482E+002  0.62542769E+002  0.18854279E+000
  0.69267426E+002  0.67610265E+002 -0.29120793E+000
  0.65664693E+002  0.64438441E+002 -0.56567228E+000
  0.54412227E+002  0.52663495E+002 -0.73497069E+000
  0.36770487E+002  0.35648032E+002 -0.31226182E+000
  0.14827873E+002  0.14567999E+002  0.34741355E-001
VECTORS Vwnd_CP double
  0.17200000E+002  0.00000000E+000  0.00000000E+000
  0.17200000E+002  0.00000000E+000  0.00000000E+000
  0.17200000E+002  0.00000000E+000  0.00000000E+000
  0.17200000E+002  0.00000000E+000  0.00000000E+000
  0.17200000E+002  0.00000000E+000  0.00000000E+000
  0.17200000E+002  0.00000000E+000  0.00000000E+000
  0.17200000E+002  0.00000000E+000  0.00000000E+000
  0.17200000E+002  0.00000000E+000  0.00000000E+000
  0.17200000E+002  0.00000000E+000  0.00000000E+000
VECTORS Tangent double
 -0.49801016E+000 -0.86717117E+000 -0.20126602E-003
 -0.70990329E+000 -0.70428201E+000  0.49163156E-002
 -0.72162365E+000 -0.69227985E+000  0.28123548E-002
 -0.71981246E+000 -0.69416807E+000 -0.84085393E-003
 -0.71387433E+000 -0.70027378E+000 -0.27128305E-003
 -0.71560975E+000 -0.69850021E+000  0.38394223E-003
 -0.71670654E+000 -0.69737470E+000  0.52077243E-003
 -0.71298648E+000 -0.70117769E+000  0.34968490E-003
 -0.71251642E+000 -0.70163856E+000 -0.48669121E-002
VECTORS Normal double
  0.46201815E+000 -0.26553010E+000  0.84618733E+000
  0.45151337E+000 -0.44973769E+000  0.77063071E+000
  0.48926674E+000 -0.50712292E+000  0.70953816E+000
  0.62615628E+000 -0.64981010E+000  0.43090039E+000
  0.70025279E+000 -0.71384983E+000 -0.80278057E-002
  0.62810376E+000 -0.64372925E+000 -0.43714795E+000
  0.49433301E+000 -0.50856281E+000 -0.70498137E+000
  0.44914162E+000 -0.45708863E+000 -0.76768600E+000
  0.36263609E+000 -0.36230240E+000 -0.85862217E+000
VECTORS Orth double
  0.73384270E+000 -0.42131690E+000 -0.53288551E+000
  0.54053029E+000 -0.54929306E+000 -0.63726301E+000
  0.48977277E+000 -0.51339551E+000 -0.70466140E+000
  0.29966369E+000 -0.30964097E+000 -0.90239911E+000
 -0.54280065E-002  0.59208112E-002 -0.99996774E+000
 -0.30559509E+000  0.31258618E+000 -0.89938953E+000
 -0.49190102E+000  0.50500732E+000 -0.70922563E+000
 -0.53844413E+000  0.54719268E+000 -0.64082610E+000
 -0.60067913E+000  0.61354731E+000 -0.51258587E+000
