# vtk DataFile Version 2.0
Sgmt
ASCII
 
DATASET POLYDATA
POINTS 900 double
  0.91283202E-001  0.17244898E-001  0.11318144E+003
 -0.20306555E+002 -0.29619340E+001  0.10104507E+003
 -0.34666777E+002 -0.50770140E+001  0.88821063E+002
 -0.46607199E+002 -0.68593872E+001  0.76525801E+002
 -0.52593197E+002 -0.77593603E+001  0.64276354E+002
 -0.52598168E+002 -0.77662303E+001  0.52034180E+002
 -0.46613256E+002 -0.68766522E+001  0.39786187E+002
 -0.34671475E+002 -0.50813723E+001  0.27482787E+002
 -0.20336614E+002 -0.29686303E+001  0.15240319E+002
  0.19023144E-003  0.47894972E-004  0.30001531E+001
 -0.43613999E+001 -0.63321485E+000  0.11315875E+003
 -0.20955049E+002  0.14023999E+001  0.10104581E+003
 -0.35131132E+002 -0.20151591E+001  0.88825316E+002
 -0.46963600E+002 -0.44299210E+001  0.76524891E+002
 -0.52911950E+002 -0.55262189E+001  0.64275116E+002
 -0.52922146E+002 -0.54895302E+001  0.52034375E+002
 -0.46975548E+002 -0.43017248E+001  0.39782887E+002
 -0.35154377E+002 -0.16899615E+001  0.27483963E+002
 -0.20977241E+002  0.14855357E+001  0.15241175E+002
 -0.64651908E+000  0.44533350E+001  0.30011289E+001
 -0.42220502E+001 -0.55783096E+000  0.11316019E+003
 -0.20763130E+002  0.17836113E+001  0.10103287E+003
 -0.34996209E+002 -0.13696797E+001  0.88801224E+002
 -0.46893488E+002 -0.35615692E+001  0.76513695E+002
 -0.52871521E+002 -0.45439583E+001  0.64262216E+002
 -0.52879563E+002 -0.45054641E+001  0.52015952E+002
 -0.46902327E+002 -0.34304972E+001  0.39763476E+002
 -0.35016889E+002 -0.10448682E+001  0.27476965E+002
 -0.20779853E+002  0.18677464E+001  0.15238622E+002
 -0.39641012E+000  0.44631624E+001  0.30031266E+001
 -0.40788556E+001 -0.48129951E+000  0.11316216E+003
 -0.20565443E+002  0.21632014E+001  0.10102125E+003
 -0.34846228E+002 -0.72584204E+000  0.88777662E+002
 -0.46800361E+002 -0.26944572E+001  0.76501702E+002
 -0.52802810E+002 -0.35631240E+001  0.64250294E+002
 -0.52808941E+002 -0.35230132E+001  0.52000560E+002
 -0.46806412E+002 -0.25605457E+001  0.39748703E+002
 -0.34863926E+002 -0.40087854E+000  0.27473683E+002
 -0.20577234E+002  0.22483158E+001  0.15233392E+002
 -0.14567169E+000  0.44716851E+001  0.30048714E+001
 -0.39315695E+001 -0.40364166E+000  0.11316459E+003
 -0.20354998E+002  0.25416215E+001  0.10100332E+003
 -0.34681312E+002 -0.83997309E-001  0.88754971E+002
 -0.46683140E+002 -0.18294699E+001  0.76488579E+002
 -0.52704168E+002 -0.25849668E+001  0.64238866E+002
 -0.52708704E+002 -0.25434460E+001  0.51988912E+002
 -0.46687058E+002 -0.16928267E+001  0.39739014E+002
 -0.34695817E+002  0.24150847E+000  0.27473883E+002
 -0.20362668E+002  0.26276419E+001  0.15233485E+002
  0.10575275E+000  0.44790009E+001  0.30061910E+001
 -0.37799406E+001 -0.32493775E+000  0.11316729E+003
 -0.20135708E+002  0.29184518E+001  0.10098506E+003
 -0.34502540E+002  0.55582076E+000  0.88734531E+002
 -0.46543250E+002 -0.96713078E+000  0.76475414E+002
 -0.52576651E+002 -0.16104061E+001  0.64228302E+002
 -0.52579853E+002 -0.15677366E+001  0.51980965E+002
 -0.46545618E+002 -0.82798009E+000  0.39733802E+002
 -0.34513621E+002  0.88203337E+000  0.27476539E+002
 -0.20140118E+002  0.30052967E+001  0.15234424E+002
  0.35816349E+000  0.44853603E+001  0.30064736E+001
 -0.36237737E+001 -0.24533473E+000  0.11316977E+003
 -0.19908023E+002  0.32937945E+001  0.10096829E+003
 -0.34310639E+002  0.11934882E+001  0.88717386E+002
 -0.46382560E+002 -0.10781397E+000  0.76463393E+002
 -0.52425337E+002 -0.63958973E+000  0.64219262E+002
 -0.52427484E+002 -0.59610066E+000  0.51976330E+002
 -0.46384077E+002  0.33545021E-001  0.39732083E+002
 -0.34318561E+002  0.15204971E+001  0.27480463E+002
 -0.19910142E+002  0.33812605E+001  0.15235675E+002
  0.61080946E+000  0.44902741E+001  0.30070724E+001
 -0.34627955E+001 -0.16508216E+000  0.11317142E+003
 -0.19672121E+002  0.36675535E+001  0.10095512E+003
 -0.34105767E+002  0.18288054E+001  0.88704240E+002
 -0.46203027E+002  0.74822347E+000  0.76453895E+002
 -0.52253300E+002  0.32728487E+000  0.64212720E+002
 -0.52254738E+002  0.37118390E+000  0.51974389E+002
 -0.46204701E+002  0.89145596E+000  0.39732959E+002
 -0.34111768E+002  0.21566529E+001  0.27484603E+002
 -0.19673198E+002  0.37554936E+001  0.15237033E+002
  0.86366563E+000  0.44938057E+001  0.30074857E+001
 -0.32966938E+001 -0.84372751E-001  0.11317196E+003
 -0.19428701E+002  0.40392250E+001  0.10094316E+003
 -0.33892366E+002  0.24620083E+001  0.88698874E+002
 -0.46005908E+002  0.16007189E+001  0.76447509E+002
 -0.52062628E+002  0.12900398E+001  0.64208956E+002
 -0.52063647E+002  0.13340052E+001  0.51974583E+002
 -0.46007928E+002  0.17452804E+001  0.39735603E+002
 -0.33904174E+002  0.27912473E+001  0.27476798E+002
 -0.19429348E+002  0.41278659E+001  0.15238293E+002
  0.11165321E+001  0.44959015E+001  0.30079095E+001
 -0.31264027E+001 -0.34387204E-002  0.11317193E+003
 -0.19179023E+002  0.44099000E+001  0.10093919E+003
 -0.33673990E+002  0.30940949E+001  0.88702898E+002
 -0.45793610E+002  0.24505945E+001  0.76443992E+002
 -0.51855312E+002  0.22495672E+001  0.64207374E+002
 -0.51855737E+002  0.22935076E+001  0.51975426E+002
 -0.45794222E+002  0.25956046E+001  0.39738359E+002
 -0.33673302E+002  0.34227062E+001  0.27480344E+002
 -0.19178321E+002  0.44981961E+001  0.15239838E+002
  0.13693135E+001  0.44965354E+001  0.30084509E+001
  0.91283202E-001  0.17244898E-001  0.11318144E+003
  0.76303002E+001  0.19103935E+002  0.10087416E+003
  0.13003410E+002  0.32639526E+002  0.88721716E+002
  0.17513053E+002  0.43941030E+002  0.76504886E+002
  0.19731331E+002  0.49506253E+002  0.64217374E+002
  0.19722342E+002  0.49479047E+002  0.51961857E+002
  0.17494681E+002  0.43885691E+002  0.39691013E+002
  0.12995212E+002  0.32602514E+002  0.27448297E+002
  0.76112529E+001  0.19090836E+002  0.15260908E+002
  0.19023144E-003  0.47894972E-004  0.30001531E+001
  0.28771137E+001 -0.35167500E+001  0.11318680E+003
  0.11713837E+002  0.17432806E+002  0.10087086E+003
  0.15883081E+002  0.31500187E+002  0.88720699E+002
  0.19799328E+002  0.43045330E+002  0.76505492E+002
  0.21826243E+002  0.48669670E+002  0.64217533E+002
  0.21855536E+002  0.48620090E+002  0.51961586E+002
  0.19913132E+002  0.42930384E+002  0.39690402E+002
  0.16179158E+002  0.31338650E+002  0.27448544E+002
  0.11788115E+002  0.17416373E+002  0.15261342E+002
  0.41801610E+001 -0.16665394E+001  0.30183512E+001
  0.29647272E+001 -0.35692344E+001  0.11318266E+003
  0.12194555E+002  0.17222911E+002  0.10087724E+003
  0.16614773E+002  0.31191539E+002  0.88717287E+002
  0.20736059E+002  0.42655167E+002  0.76494503E+002
  0.22871633E+002  0.48259336E+002  0.64216510E+002
  0.22902034E+002  0.48217144E+002  0.51964639E+002
  0.20852232E+002  0.42553583E+002  0.39699547E+002
  0.16909548E+002  0.31032019E+002  0.27458212E+002
  0.12271597E+002  0.17200545E+002  0.15262539E+002
  0.43205939E+001 -0.17412358E+001  0.30169617E+001
  0.30536481E+001 -0.36202539E+001  0.11317965E+003
  0.12673061E+002  0.17007742E+002  0.10088734E+003
  0.17341209E+002  0.30873662E+002  0.88714116E+002
  0.21665905E+002  0.42254749E+002  0.76484918E+002
  0.23910153E+002  0.47837334E+002  0.64216272E+002
  0.23941864E+002  0.47800996E+002  0.51966802E+002
  0.21784703E+002  0.42164076E+002  0.39707421E+002
  0.17634695E+002  0.30716098E+002  0.27466319E+002
  0.12751755E+002  0.16980120E+002  0.15262030E+002
  0.44599627E+001 -0.18154168E+001  0.30150088E+001
  0.31440173E+001 -0.36698498E+001  0.11317790E+003
  0.13149044E+002  0.16787053E+002  0.10089997E+003
  0.18062205E+002  0.30547037E+002  0.88711201E+002
  0.22588297E+002  0.41843230E+002  0.76476348E+002
  0.24940896E+002  0.47401938E+002  0.64215921E+002
  0.24974708E+002  0.47371604E+002  0.51967973E+002
  0.22710416E+002  0.41762443E+002  0.39713407E+002
  0.18354565E+002  0.30391331E+002  0.27472445E+002
  0.13228438E+002  0.16754970E+002  0.15259788E+002
  0.45982500E+001 -0.18890863E+001  0.30126568E+001
  0.32360287E+001 -0.37180237E+001  0.11317703E+003
  0.13622090E+002  0.16560552E+002  0.10091345E+003
  0.18777531E+002  0.30212117E+002  0.88708502E+002
  0.23503757E+002  0.41421989E+002  0.76469629E+002
  0.25963666E+002  0.46953022E+002  0.64215949E+002
  0.25999702E+002  0.46927729E+002  0.51968162E+002
  0.23628870E+002  0.41348529E+002  0.39717573E+002
  0.19068860E+002  0.30057650E+002  0.27476773E+002
  0.13701433E+002  0.16524860E+002  0.15256008E+002
  0.47354137E+001 -0.19622343E+001  0.30101016E+001
  0.33298182E+001 -0.37647415E+001  0.11317677E+003
  0.14091223E+002  0.16326787E+002  0.10092440E+003
  0.19486937E+002  0.29869385E+002  0.88705858E+002
  0.24411903E+002  0.40990297E+002  0.76464419E+002
  0.26977173E+002  0.46488070E+002  0.64215680E+002
  0.27015137E+002  0.46466515E+002  0.51968116E+002
  0.24539189E+002  0.40921337E+002  0.39720512E+002
  0.19777259E+002  0.29715081E+002  0.27479600E+002
  0.14170398E+002  0.16289394E+002  0.15251310E+002
  0.48713578E+001 -0.20348504E+001  0.30076521E+001
  0.34256892E+001 -0.38099043E+001  0.11317677E+003
  0.14556339E+002  0.16086956E+002  0.10093309E+003
  0.20189700E+002  0.29518299E+002  0.88701616E+002
  0.25312729E+002  0.40547922E+002  0.76460728E+002
  0.27980286E+002  0.46005233E+002  0.64215035E+002
  0.28019234E+002  0.45985352E+002  0.51968118E+002
  0.25440712E+002  0.40480217E+002  0.39722618E+002
  0.20478498E+002  0.29361722E+002  0.27483757E+002
  0.14633594E+002  0.16045427E+002  0.15249809E+002
  0.50059829E+001 -0.21068753E+001  0.30056248E+001
  0.35244052E+001 -0.38531799E+001  0.11317680E+003
  0.15016626E+002  0.15841093E+002  0.10093826E+003
  0.20887304E+002  0.29162171E+002  0.88698904E+002
  0.26207072E+002  0.40096322E+002  0.76458733E+002
  0.28973658E+002  0.45506608E+002  0.64214277E+002
  0.29012082E+002  0.45485406E+002  0.51968171E+002
  0.26334350E+002  0.40027390E+002  0.39723738E+002
  0.21174169E+002  0.29001754E+002  0.27485488E+002
  0.15093006E+002  0.15798288E+002  0.15245866E+002
  0.51393276E+001 -0.21781865E+001  0.30043944E+001
[...]
CELL_DATA 1620
SCALARS Gamma double
LOOKUP_TABLE default
 -0.46587266E+001
  0.46587266E+001
 -0.13835549E+003
  0.13369677E+003
 -0.12171970E+003
 -0.16635789E+002
 -0.11050393E+003
 -0.11215776E+002
 -0.10856606E+003
 -0.19378658E+001
 -0.10380919E+003
 -0.47568714E+001
 -0.10921629E+003
  0.54070988E+001
 -0.13273300E+003
  0.23516710E+002
 -0.66919081E+002
 -0.65813918E+002
 -0.66919081E+002
  0.00000000E+000
  0.46587266E+001
  0.00000000E+000
  0.13369677E+003
  0.00000000E+000
 -0.16635789E+002
  0.00000000E+000
 -0.11215776E+002
  0.00000000E+000
 -0.19378658E+001
  0.00000000E+000
 -0.47568714E+001
  0.00000000E+000
  0.54070988E+001
  0.00000000E+000
  0.23516710E+002
  0.00000000E+000
 -0.65813918E+002
 -0.66919081E+002
  0.83211125E+000
  0.38266154E+001
  0.27867914E+002
  0.10666096E+003
  0.24918373E+002
 -0.13686248E+002
  0.20471167E+002
 -0.67685699E+001
  0.18877183E+002
 -0.34388132E+000
  0.18315604E+002
 -0.41952929E+001
  0.19841319E+002
  0.38813838E+001
  0.25575396E+002
  0.17782634E+002
  0.12482756E+002
 -0.52721278E+002
 -0.54436325E+002
  0.99235881E+000
  0.28342566E+001
  0.31099255E+002
  0.76554066E+002
  0.27415886E+002
 -0.10002878E+002
  0.23975277E+002
 -0.33279609E+001
  0.23038709E+002
  0.59268608E+000
  0.22064967E+002
 -0.32215504E+001
  0.23517145E+002
  0.24292057E+001
  0.29201645E+002
  0.12098133E+002
  0.14721714E+002
 -0.38241348E+002
 -0.39714610E+002
  0.10427003E+001
  0.17915563E+001
  0.30769127E+002
  0.46827639E+002
  0.26983230E+002
 -0.62169816E+001
  0.24776825E+002
 -0.11215561E+001
  0.24504431E+002
  0.86508056E+000
  0.23208485E+002
 -0.19256050E+001
  0.24544431E+002
  0.10932602E+001
  0.29638113E+002
  0.70044515E+001
  0.14999923E+002
 -0.23603158E+002
 -0.24714688E+002
  0.97299534E+000
  0.81856091E+000
  0.27077488E+002
  0.20723147E+002
  0.23657597E+002
 -0.27970910E+001
  0.22649332E+002
 -0.11329133E+000
  0.22929610E+002
  0.58480337E+000
  0.21802107E+002
 -0.79810264E+000
  0.22590109E+002
  0.30525857E+000
  0.26662817E+002
  0.29317436E+001
  0.13579584E+002
 -0.10519925E+002
 -0.11135103E+002
  0.64872544E+000
  0.16983547E+000
  0.17225887E+002
  0.41459856E+001
  0.14985761E+002
 -0.55696483E+000
  0.14823631E+002
  0.48838483E-001
  0.15253043E+002
  0.15539132E+000
  0.14596251E+002
 -0.14131106E+000
  0.14877618E+002
  0.23892066E-001
  0.17257262E+002
  0.55209979E+000
  0.88586096E+001
 -0.21212729E+001
 -0.22764939E+001
  0.16779964E+000
  0.20358333E-002
  0.42656912E+001
  0.48093971E-001
  0.37150864E+001
 -0.63599538E-002
  0.37625785E+001
  0.13463489E-002
  0.39157448E+001
  0.22250323E-002
  0.37758405E+001
 -0.14067937E-002
  0.37998844E+001
 -0.15175484E-003
  0.43459621E+001
  0.60219938E-002
  0.22494345E+001
 -0.24745317E-001
 -0.27059359E-001
  0.20358333E-002
  0.00000000E+000
  0.00000000E+000
  0.50129804E-001
 -0.00000000E+000
  0.00000000E+000
  0.43769850E-001
 -0.00000000E+000
  0.00000000E+000
  0.45116199E-001
 -0.00000000E+000
  0.00000000E+000
  0.47341231E-001
 -0.00000000E+000
  0.00000000E+000
  0.45934438E-001
 -0.00000000E+000
  0.00000000E+000
  0.45782683E-001
 -0.00000000E+000
  0.00000000E+000
  0.51804677E-001
 -0.00000000E+000
  0.00000000E+000
  0.27059359E-001
 -0.00000000E+000
  0.00000000E+000
 -0.00000000E+000
  0.10000560E+003
 -0.10000560E+003
  0.49889924E+002
  0.50115674E+002
  0.22951288E+002
  0.26938636E+002
  0.35053800E+002
 -0.12102512E+002
  0.52787068E+002
 -0.17733268E+002
  0.45703218E+002
  0.70838501E+001
  0.34215870E+002
  0.11487348E+002
  0.47591404E+002
 -0.13375534E+002
  0.52785673E+002
 -0.51942696E+001
  0.52785673E+002
  0.00000000E+000
 -0.10000560E+003
  0.00000000E+000
  0.50115674E+002
  0.00000000E+000
  0.26938636E+002
  0.00000000E+000
 -0.12102512E+002
  0.00000000E+000
 -0.17733268E+002
  0.00000000E+000
  0.70838501E+001
  0.00000000E+000
  0.11487348E+002
  0.00000000E+000
 -0.13375534E+002
  0.00000000E+000
 -0.51942696E+001
  0.52785673E+002
 -0.19765346E+002
 -0.80240252E+002
 -0.88862138E+001
  0.39236541E+002
 -0.26267096E+001
  0.20679132E+002
 -0.48235155E+001
 -0.99057057E+001
 -0.93638934E+001
 -0.13192890E+002
 -0.78432373E+001
  0.55631940E+001
 -0.49671768E+001
  0.86112870E+001
 -0.71011572E+001
 -0.11241553E+002
 -0.86556926E+001
 -0.36397342E+001
  0.44129981E+002
 -0.22240400E+002
 -0.57999852E+002
 -0.10510455E+002
  0.27506596E+002
 -0.39498849E+001
  0.14118562E+002
 -0.68456066E+001
 -0.70099840E+001
 -0.11448451E+002
 -0.85900453E+001
 -0.96926403E+001
  0.38073832E+001
 -0.66721349E+001
  0.55907816E+001
 -0.94491412E+001
 -0.84645468E+001
 -0.10904937E+002
 -0.21839384E+001
  0.33225043E+002
 -0.22238158E+002
 -0.35761694E+002
 -0.11071798E+002
  0.16340236E+002
 -0.50772428E+001
  0.81240071E+001
 -0.80530541E+001
 -0.40341727E+001
 -0.12045193E+002
 -0.45979064E+001
 -0.10367287E+002
  0.21294770E+001
 -0.77188607E+001
  0.29423555E+001
 -0.10764720E+002
 -0.54186876E+001
 -0.11897044E+002
 -0.10516144E+001
  0.21328000E+002
 -0.19801747E+002
 -0.15959946E+002
 -0.10431548E+002
  0.69700364E+001
 -0.56400549E+001
  0.33325139E+001
 -0.81041948E+001
 -0.15700328E+001
 -0.11011162E+002
 -0.16909396E+001
 -0.96864267E+001
  0.80474206E+000
 -0.77734533E+001
  0.10293821E+001
 -0.10713530E+002
 -0.24786105E+001
 -0.11444404E+002
 -0.32074043E+000
  0.98835952E+001
 -0.12734296E+002
 -0.32256505E+001
 -0.70919756E+001
  0.13277161E+001
 -0.43707978E+001
  0.61133605E+000
 -0.56838027E+001
 -0.25702784E+000
 -0.71110926E+001
 -0.26364967E+000
 -0.64318326E+001
  0.12548201E+000
 -0.55503317E+001
  0.14788120E+000
 -0.75239556E+001
 -0.50498659E+000
 -0.78048641E+001
 -0.39831881E-001
  0.20787311E+001
 -0.31878192E+001
 -0.37831218E-001
 -0.18745597E+001
  0.14456477E-001
 -0.12697514E+001
  0.65277625E-002
 -0.15248765E+001
 -0.19027177E-002
 -0.17864326E+001
 -0.20935815E-002
 -0.16619089E+001
  0.95830135E-003
 -0.15148379E+001
  0.81028700E-003
 -0.20138719E+001
 -0.59526030E-002
 -0.20534908E+001
 -0.21301071E-003
  0.25240302E-001
 -0.37831218E-001
 -0.00000000E+000
 -0.00000000E+000
 -0.23374740E-001
 -0.00000000E+000
 -0.00000000E+000
 -0.16846978E-001
 -0.00000000E+000
 -0.00000000E+000
 -0.18749696E-001
 -0.00000000E+000
 -0.00000000E+000
 -0.20843277E-001
 -0.00000000E+000
 -0.00000000E+000
 -0.19884976E-001
 -0.00000000E+000
 -0.00000000E+000
 -0.19074689E-001
 -0.00000000E+000
 -0.00000000E+000
 -0.25027292E-001
 -0.00000000E+000
 -0.00000000E+000
 -0.25240302E-001
 -0.00000000E+000
 -0.00000000E+000
  0.00000000E+000
  0.40307935E+002
 -0.40307935E+002
  0.78883779E+002
 -0.38575845E+002
  0.55757413E+002
  0.23126366E+002
  0.68182051E+002
 -0.12424638E+002
  0.82010533E+002
 -0.13828482E+002
  0.78109832E+002
  0.39007012E+001
  0.70331007E+002
  0.77788247E+001
  0.84043411E+002
 -0.13712404E+002
  0.23558086E+002
  0.60485325E+002
  0.23558086E+002
  0.00000000E+000
 -0.40307935E+002
  0.00000000E+000
 -0.38575845E+002
  0.00000000E+000
  0.23126366E+002
  0.00000000E+000
 -0.12424638E+002
  0.00000000E+000
 -0.13828482E+002
  0.00000000E+000
  0.39007012E+001
  0.00000000E+000
  0.77788247E+001
  0.00000000E+000
 -0.13712404E+002
  0.00000000E+000
  0.60485325E+002
  0.23558086E+002
 -0.91277294E+001
 -0.31180205E+002
 -0.17022088E+002
 -0.30681486E+002
 -0.12027814E+002
  0.18132092E+002
 -0.14779134E+002
 -0.96733181E+001
 -0.17931352E+002
 -0.10676264E+002
 -0.17347197E+002
  0.33165460E+001
 -0.15364989E+002
  0.57966173E+001
 -0.17791989E+002
 -0.11285405E+002
 -0.51326887E+001
  0.47826025E+002
  0.18425397E+002
 -0.94285308E+001
 -0.21751674E+002
 -0.18113224E+002
 -0.21996792E+002
 -0.12637587E+002
  0.12656455E+002
 -0.15700499E+002
 -0.66104064E+001
 -0.19124492E+002
 -0.72522709E+001
 -0.18240085E+002
  0.24321392E+001
 -0.16208555E+002
  0.37650876E+001
 -0.19134557E+002
 -0.83594026E+001
 -0.54301888E+001
  0.34121657E+002
  0.12995209E+002
 -0.88111280E+001
 -0.12940546E+002
 -0.17364621E+002
 -0.13443300E+002
 -0.12134860E+002
  0.74266936E+001
 -0.15020160E+002
 -0.37251056E+001
 -0.18202912E+002
 -0.40695191E+001
 -0.17222675E+002
  0.14519017E+001
 -0.15451635E+002
  0.19940483E+001
 -0.18533877E+002
 -0.52771613E+001
 -0.51786026E+001
  0.20766383E+002
  0.78166061E+001
 -0.73888130E+001
 -0.55517334E+001
 -0.14859403E+002
 -0.59727103E+001
 -0.10531808E+002
  0.30990986E+001
 -0.12815353E+002
 -0.14415602E+001
 -0.15308397E+002
 -0.15764755E+001
 -0.14442329E+002
  0.58583389E+000
 -0.13152417E+002
  0.70413672E+000
 -0.16048524E+002
 -0.23810543E+001
 -0.44178333E+001
  0.91356917E+001
  0.33987728E+001
 -0.44720828E+001
 -0.10796506E+001
 -0.92379513E+001
 -0.12068418E+001
 -0.67130300E+001
  0.57417728E+000
 -0.79160876E+001
 -0.23850265E+000
 -0.92326540E+001
 -0.25990912E+000
 -0.87457936E+001
  0.98973503E-001
 -0.81446344E+001
  0.10297754E+000
 -0.10049450E+002
 -0.47623825E+000
 -0.27284752E+001
  0.18147164E+001
  0.67029763E+000
 -0.10674822E+001
 -0.12168383E-001
 -0.22601309E+001
 -0.14193089E-001
 -0.16920466E+001
  0.60929708E-002
 -0.19286953E+001
 -0.18539712E-002
 -0.21864031E+001
 -0.22012529E-002
 -0.20882739E+001
  0.84422521E-003
 -0.19858451E+001
  0.54879671E-003
 -0.24566168E+001
 -0.54665826E-002
 -0.66265053E+000
  0.20750192E-001
  0.76470951E-002
 -0.12168383E-001
 -0.00000000E+000
 -0.00000000E+000
 -0.26361473E-001
 -0.00000000E+000
 -0.00000000E+000
 -0.20268502E-001
 -0.00000000E+000
 -0.00000000E+000
 -0.22122473E-001
 -0.00000000E+000
 -0.00000000E+000
 -0.24323726E-001
 -0.00000000E+000
 -0.00000000E+000
 -0.23479501E-001
 -0.00000000E+000
 -0.00000000E+000
 -0.22930704E-001
 -0.00000000E+000
 -0.00000000E+000
 -0.28397287E-001
 -0.00000000E+000
 -0.00000000E+000
 -0.76470951E-002
 -0.00000000E+000
 -0.00000000E+000
  0.00000000E+000
  0.57259528E+000
 -0.57259528E+000
  0.28749200E+001
 -0.23023247E+001
  0.60818654E+000
  0.22667335E+001
  0.56005077E+000
  0.48135774E-001
 -0.31224392E+000
  0.87229468E+000
 -0.73981951E+000
  0.42757559E+000
 -0.11686188E+001
  0.42879934E+000
 -0.15419216E+001
  0.37330273E+000
 -0.24999052E+001
  0.95798365E+000
 -0.24999052E+001
  0.00000000E+000
 -0.57259528E+000
  0.00000000E+000
 -0.23023247E+001
  0.00000000E+000
  0.22667335E+001
  0.00000000E+000
  0.48135774E-001
  0.00000000E+000
  0.87229468E+000
  0.00000000E+000
  0.42757559E+000
  0.00000000E+000
  0.42879934E+000
  0.00000000E+000
  0.37330273E+000
  0.00000000E+000
  0.95798365E+000
 -0.24999052E+001
 -0.99894903E+000
  0.42635375E+000
 -0.64478693E+000
 -0.26564868E+001
 -0.23838032E+000
  0.18603269E+001
 -0.21502493E+000
  0.24780382E-001
  0.31551424E-001
  0.62571833E+000
  0.15364677E+000
  0.30548024E+000
  0.28903656E+000
  0.29340954E+000
  0.41200876E+000
  0.25033053E+000
  0.66406051E+000
  0.70593190E+000
 -0.18358447E+001
 -0.26953729E+000
  0.69589104E+000
 -0.74847230E+000
 -0.21775518E+001
 -0.17123205E+000
  0.12830866E+001
 -0.17877234E+000
  0.32320669E-001
  0.49585216E-001
  0.39736077E+000
  0.15674226E+000
  0.19832320E+000
  0.27025338E+000
  0.17989843E+000
  0.37051212E+000
  0.15007179E+000
  0.60449651E+000
  0.47194751E+000
 -0.12313482E+001
  0.49003459E+000
  0.20585645E+000
 -0.72094390E+000
 -0.96657333E+000
 -0.10196453E+000
  0.66410724E+000
 -0.12279575E+000
  0.53151884E-001
  0.63897965E-001
  0.21066706E+000
  0.15246794E+000
  0.10975322E+000
  0.24066590E+000
  0.91700472E-001
  0.31558484E+000
  0.75152854E-001
  0.51858801E+000
  0.26894434E+000
 -0.71276020E+000
  0.22058251E+000
 -0.14726060E-001
 -0.50525433E+000
 -0.24073648E+000
 -0.71576945E-001
  0.23042985E+000
 -0.54497242E-001
  0.36072180E-001
  0.77342782E-001
  0.78827037E-001
  0.14351446E+000
  0.43581542E-001
  0.20182208E+000
  0.33392851E-001
  0.24991818E+000
  0.27056754E-001
  0.40676106E+000
  0.11210146E+000
 -0.30599914E+000
  0.11591051E-002
 -0.15885165E-001
 -0.21969885E+000
 -0.19878529E-001
 -0.24307034E-001
  0.35038042E-001
  0.29444707E-002
  0.88206752E-002
  0.68706243E-001
  0.13065265E-001
  0.10477999E+000
  0.75077901E-002
  0.13285900E+000
  0.53138460E-002
  0.15551724E+000
  0.43985183E-002
  0.24588546E+000
  0.21733232E-001
 -0.60113674E-001
 -0.15695824E-001
 -0.18934076E-003
 -0.35522716E-001
 -0.51637527E-004
 -0.78145232E-003
  0.29677866E-003
  0.79265796E-002
  0.11264327E-003
  0.20867785E-001
  0.12405976E-003
  0.28305413E-001
  0.70162431E-004
  0.33575191E-001
  0.44067848E-004
  0.37937774E-001
  0.35934829E-004
  0.59422186E-001
  0.24882016E-003
 -0.69148868E-003
 -0.18934076E-003
 -0.00000000E+000
 -0.00000000E+000
 -0.24097829E-003
 -0.00000000E+000
 -0.00000000E+000
  0.55800373E-004
  0.00000000E+000
  0.00000000E+000
  0.16844364E-003
 -0.00000000E+000
  0.00000000E+000
  0.29250341E-003
 -0.00000000E+000
  0.00000000E+000
  0.36266584E-003
 -0.00000000E+000
  0.00000000E+000
  0.40673368E-003
 -0.00000000E+000
  0.00000000E+000
  0.44266851E-003
 -0.00000000E+000
  0.00000000E+000
  0.69148868E-003
 -0.00000000E+000
  0.00000000E+000
 -0.00000000E+000
 -0.17174016E+001
  0.17174016E+001
  0.66700341E-001
 -0.17841020E+001
 -0.11988435E+001
  0.12655439E+001
 -0.16378504E+001
  0.43900683E+000
 -0.19165140E+001
  0.27866367E+000
 -0.17160934E+001
 -0.20042062E+000
 -0.14808815E+001
 -0.23521187E+000
 -0.10437207E+001
 -0.43716086E+000
 -0.44375528E+000
 -0.59996540E+000
 -0.44375528E+000
  0.00000000E+000
  0.17174016E+001
  0.00000000E+000
 -0.17841020E+001
  0.00000000E+000
  0.12655439E+001
  0.00000000E+000
  0.43900683E+000
  0.00000000E+000
  0.27866367E+000
  0.00000000E+000
 -0.20042062E+000
  0.00000000E+000
 -0.23521187E+000
  0.00000000E+000
 -0.43716086E+000
  0.00000000E+000
 -0.59996540E+000
 -0.44375528E+000
  0.76514165E+000
  0.95225998E+000
 -0.32420413E+000
 -0.69475619E+000
  0.40776031E-001
  0.90056370E+000
  0.63221910E-001
  0.41656095E+000
  0.69103156E-001
  0.27278242E+000
 -0.27352933E-001
 -0.10396453E+000
 -0.87291753E-001
 -0.17527305E+000
 -0.15216663E+000
 -0.37228598E+000
 -0.28583563E+000
 -0.46629640E+000
 -0.72959091E+000
  0.47420960E+000
  0.47805039E+000
 -0.97755064E-001
 -0.12279153E+000
  0.19338113E+000
  0.60942751E+000
  0.27144919E+000
  0.33849289E+000
  0.31126593E+000
  0.23296568E+000
  0.24305729E+000
 -0.35755882E-001
  0.18070122E+000
 -0.11291699E+000
  0.86345378E-001
 -0.27793014E+000
 -0.64917146E-001
 -0.31503387E+000
 -0.79450805E+000
  0.20790046E+000
  0.27014992E+000
  0.10999486E+000
 -0.24885930E-001
  0.33387990E+000
  0.38554246E+000
  0.44346670E+000
  0.22890609E+000
  0.50596707E+000
  0.17046531E+000
  0.46053396E+000
  0.96772320E-002
  0.39777944E+000
 -0.50162472E-001
  0.28551796E+000
 -0.16566866E+000
  0.13741367E+000
 -0.16692958E+000
 -0.65709438E+000
  0.16639608E+000
  0.10375385E+000
  0.12917388E+000
  0.12336271E-001
  0.35113219E+000
  0.16358415E+000
  0.47595892E+000
  0.10407937E+000
  0.56563783E+000
  0.80786391E-001
  0.55998429E+000
  0.15330773E-001
  0.52217745E+000
 -0.12355634E-001
  0.42171285E+000
 -0.65204050E-001
  0.31037291E+000
 -0.55589640E-001
 -0.34672148E+000
  0.89847100E-001
  0.13906748E-001
  0.97873087E-001
  0.43102834E-002
  0.23445350E+000
  0.27003731E-001
  0.31918700E+000
  0.19345879E-001
  0.38308300E+000
  0.16890385E-001
  0.39173119E+000
  0.66825889E-002
  0.37732871E+000
  0.20468383E-002
  0.32045489E+000
 -0.83302305E-002
  0.26895667E+000
 -0.40914188E-002
 -0.77764804E-001
  0.13843415E-001
  0.63332842E-004
  0.18160081E-001
 -0.63821958E-005
  0.44992030E-001
  0.17178095E-003
  0.64198178E-001
  0.13973104E-003
  0.80934843E-001
  0.15372039E-003
  0.87520845E-001
  0.96587215E-004
  0.89482047E-001
  0.85635798E-004
  0.81146095E-001
  0.57217056E-005
  0.76990012E-001
  0.64664345E-004
 -0.77479209E-003
  0.63332842E-004
 -0.00000000E+000
 -0.00000000E+000
  0.56950646E-004
 -0.00000000E+000
 -0.00000000E+000
  0.22873159E-003
 -0.00000000E+000
 -0.00000000E+000
  0.36846263E-003
 -0.00000000E+000
 -0.00000000E+000
  0.52218302E-003
 -0.00000000E+000
 -0.00000000E+000
  0.61877024E-003
 -0.00000000E+000
 -0.00000000E+000
  0.70440604E-003
  0.00000000E+000
  0.00000000E+000
  0.71012774E-003
 -0.00000000E+000
  0.00000000E+000
  0.77479209E-003
 -0.00000000E+000
  0.00000000E+000
 -0.00000000E+000
  0.17504126E+002
 -0.17504126E+002
  0.14282482E+002
  0.32216441E+001
  0.55521315E+001
  0.87303502E+001
 -0.15991276E+001
  0.71512592E+001
 -0.16642314E+001
  0.65103714E-001
 -0.21070198E+001
  0.44278848E+000
 -0.20157475E+001
 -0.91272301E-001
 -0.15771534E+001
 -0.43859417E+000
 -0.58440584E+000
 -0.99274753E+000
 -0.58440584E+000
  0.00000000E+000
 -0.17504126E+002
  0.00000000E+000
  0.32216441E+001
  0.00000000E+000
  0.87303502E+001
  0.00000000E+000
  0.71512592E+001
  0.00000000E+000
  0.65103714E-001
  0.00000000E+000
  0.44278848E+000
  0.00000000E+000
 -0.91272301E-001
  0.00000000E+000
 -0.43859417E+000
  0.00000000E+000
 -0.99274753E+000
 -0.58440584E+000
 -0.51982714E+001
 -0.12305854E+002
 -0.27212513E+001
  0.74462411E+000
 -0.83780236E+000
  0.68469012E+001
  0.10323360E-001
  0.63031335E+001
  0.75273480E-001
  0.15359470E-003
  0.89944453E-001
  0.42811751E+000
  0.62566909E-001
 -0.63894756E-001
  0.13021319E-003
 -0.37615747E+000
 -0.23219220E+000
 -0.76042512E+000
 -0.81659804E+000
 -0.47333155E+001
 -0.75725390E+001
 -0.31580614E+001
 -0.83063005E+000
 -0.11127297E+001
  0.48015696E+001
  0.23485253E+000
  0.49555512E+001
  0.27422417E+000
 -0.39218049E-001
  0.34232909E+000
  0.36001259E+000
  0.31592705E+000
 -0.37492723E-001
  0.22377882E+000
 -0.28400924E+000
 -0.20123065E-001
 -0.51652324E+000
 -0.83672110E+000
 -0.38152319E+001
 -0.37573070E+001
 -0.32716854E+001
 -0.13741766E+001
 -0.12484452E+001
  0.27783293E+001
  0.44170768E+000
  0.32653984E+001
  0.43394763E+000
 -0.31458001E-001
  0.54083738E+000
  0.25312284E+000
  0.51112643E+000
 -0.77817690E-002
  0.39938196E+000
 -0.17226477E+000
  0.16901572E+000
 -0.28615700E+000
 -0.66770539E+000
 -0.25390623E+001
 -0.12182447E+001
 -0.29495365E+001
 -0.96370237E+000
 -0.12358414E+001
  0.10646342E+001
  0.50070350E+000
  0.15288535E+001
  0.48320289E+000
 -0.13957393E-001
  0.61753584E+000
  0.11878989E+000
  0.60389739E+000
  0.58566755E-002
  0.50211255E+000
 -0.70479926E-001
  0.32377232E+000
 -0.10781676E+000
 -0.34393307E+000
 -0.10586385E+001
 -0.15960625E+000
 -0.17904075E+001
 -0.23193333E+000
 -0.87837968E+000
  0.15260639E+000
  0.34081773E+000
  0.30965604E+000
  0.32756731E+000
 -0.70696891E-003
  0.42125617E+000
  0.25101024E-001
  0.42179459E+000
  0.53182568E-002
  0.36141177E+000
 -0.10097102E-001
  0.26858358E+000
 -0.14988574E-001
 -0.75349489E-001
 -0.15857867E+000
 -0.10275771E-002
 -0.38833566E+000
 -0.21763449E-002
 -0.23639612E+000
  0.66684911E-003
  0.70133890E-001
  0.31260352E-002
  0.69548593E-001
 -0.12167225E-003
  0.94369440E-001
  0.28017772E-003
  0.99590135E-001
  0.97561563E-004
  0.89527236E-001
 -0.34201940E-004
  0.74622044E-001
 -0.83382695E-004
 -0.72744468E-003
 -0.10275771E-002
 -0.00000000E+000
 -0.00000000E+000
 -0.32039221E-002
 -0.00000000E+000
 -0.00000000E+000
 -0.25370730E-002
 -0.00000000E+000
 -0.00000000E+000
  0.58896227E-003
  0.00000000E+000
  0.00000000E+000
  0.46729003E-003
 -0.00000000E+000
  0.00000000E+000
  0.74746775E-003
 -0.00000000E+000
  0.00000000E+000
  0.84502932E-003
 -0.00000000E+000
  0.00000000E+000
  0.81082738E-003
 -0.00000000E+000
  0.00000000E+000
  0.72744468E-003
 -0.00000000E+000
  0.00000000E+000
 -0.00000000E+000
  0.87934400E+000
 -0.87934400E+000
 -0.46224112E+001
  0.55017552E+001
 -0.58313256E+001
  0.12089144E+001
 -0.84723672E+001
  0.26410416E+001
 -0.10056460E+002
  0.15840931E+001
 -0.13539187E+002
  0.34827268E+001
 -0.15875846E+002
  0.23366593E+001
 -0.16808242E+002
  0.93239547E+000
 -0.20051474E+002
  0.32432322E+001
 -0.20051474E+002
  0.00000000E+000
 -0.87934400E+000
  0.00000000E+000
  0.55017552E+001
  0.00000000E+000
  0.12089144E+001
  0.00000000E+000
  0.26410416E+001