# vtk DataFile Version 2.0

ASCII
 
DATASET POLYDATA
POINTS 200 double
  0.38300601E+000  0.86294405E-001  0.11318046E+003
 -0.19293962E+002 -0.65923208E+001  0.10134400E+003
 -0.33139854E+002 -0.11374573E+002  0.89262344E+002
 -0.44341116E+002 -0.15372858E+002  0.76827928E+002
 -0.49926220E+002 -0.17401620E+002  0.64530786E+002
 -0.49936544E+002 -0.17426380E+002  0.52280006E+002
 -0.44313827E+002 -0.15400633E+002  0.40002083E+002
 -0.33120244E+002 -0.11340307E+002  0.27538299E+002
 -0.19459772E+002 -0.66127184E+001  0.15242899E+002
  0.15520158E-003  0.22087610E-004  0.30001972E+001
 -0.38792379E+001 -0.13542665E+001  0.11309067E+003
 -0.20731729E+002 -0.24209024E+001  0.10133692E+003
 -0.34166751E+002 -0.84529174E+001  0.89259471E+002
 -0.45108077E+002 -0.13040321E+002  0.76808678E+002
 -0.50594658E+002 -0.15247183E+002  0.64519822E+002
 -0.50622186E+002 -0.15231367E+002  0.52291736E+002
 -0.45096345E+002 -0.12920885E+002  0.40007946E+002
 -0.34182587E+002 -0.80835873E+001  0.27546632E+002
 -0.20873626E+002 -0.23405996E+001  0.15247072E+002
 -0.14310615E+001  0.42663539E+001  0.30058216E+001
 -0.37667756E+001 -0.12885878E+001  0.11309992E+003
 -0.20632525E+002 -0.20344584E+001  0.10133233E+003
 -0.34166452E+002 -0.78121903E+001  0.89228958E+002
 -0.45211041E+002 -0.12191603E+002  0.76782517E+002
 -0.50756421E+002 -0.14293050E+002  0.64491880E+002
 -0.50781890E+002 -0.14275818E+002  0.52258154E+002
 -0.45202922E+002 -0.12075424E+002  0.39972814E+002
 -0.34179560E+002 -0.74526171E+001  0.27520840E+002
 -0.20759485E+002 -0.19552704E+001  0.15234280E+002
 -0.11847029E+001  0.42927395E+001  0.30047385E+001
 -0.36523682E+001 -0.12220369E+001  0.11310917E+003
 -0.20523250E+002 -0.16479396E+001  0.10133270E+003
 -0.34154019E+002 -0.71690548E+001  0.89199304E+002
 -0.45301342E+002 -0.11338836E+002  0.76759262E+002
 -0.50903760E+002 -0.13333518E+002  0.64466016E+002
 -0.50926416E+002 -0.13314478E+002  0.52224985E+002
 -0.45295667E+002 -0.11224744E+002  0.39937068E+002
 -0.34165422E+002 -0.68182989E+001  0.27494414E+002
 -0.20637047E+002 -0.15693895E+001  0.15222270E+002
 -0.93823158E+000  0.43167297E+001  0.30041580E+001
 -0.35358222E+001 -0.11547634E+001  0.11311855E+003
 -0.20405187E+002 -0.12612051E+001  0.10131908E+003
 -0.34129000E+002 -0.65239177E+001  0.89170480E+002
 -0.45378789E+002 -0.10482326E+002  0.76739338E+002
 -0.51037241E+002 -0.12368919E+002  0.64442471E+002
 -0.51056676E+002 -0.12347861E+002  0.52192075E+002
 -0.45373938E+002 -0.10369368E+002  0.39900795E+002
 -0.34139560E+002 -0.61809037E+001  0.27468847E+002
 -0.20506231E+002 -0.11832486E+001  0.15212513E+002
 -0.69142132E+000  0.43382052E+001  0.30037603E+001
 -0.34171580E+001 -0.10865993E+001  0.11314045E+003
 -0.20275667E+002 -0.87537266E+000  0.10131681E+003
 -0.34090759E+002 -0.58772512E+001  0.89141779E+002
 -0.45438529E+002 -0.96226051E+001  0.76720467E+002
 -0.51155004E+002 -0.11399757E+002  0.64420104E+002
 -0.51173625E+002 -0.11376668E+002  0.52158995E+002
 -0.45436171E+002 -0.95098479E+001  0.39864864E+002
 -0.34101107E+002 -0.55408458E+001  0.27444355E+002
 -0.20365834E+002 -0.79758244E+000  0.15198693E+002
 -0.44439629E+000  0.43579926E+001  0.30043200E+001
 -0.32959491E+001 -0.10176919E+001  0.11314201E+003
 -0.20134083E+002 -0.49092456E+000  0.10132033E+003
 -0.34038479E+002 -0.52295882E+001  0.89112937E+002
 -0.45485011E+002 -0.87598416E+001  0.76704740E+002
 -0.51256820E+002 -0.10426549E+002  0.64400265E+002
 -0.51271648E+002 -0.10401207E+002  0.52127684E+002
 -0.45483555E+002 -0.86465118E+001  0.39828758E+002
 -0.34049051E+002 -0.48986015E+001  0.27421891E+002
 -0.20216109E+002 -0.41155505E+000  0.15198157E+002
 -0.19602673E+000  0.43762231E+001  0.30092526E+001
 -0.31722592E+001 -0.94795743E+000  0.11312402E+003
 -0.19985325E+002 -0.10661017E+000  0.10130066E+003
 -0.33971106E+002 -0.45815726E+001  0.89082396E+002
 -0.45517046E+002 -0.78943628E+001  0.76691620E+002
 -0.51344426E+002 -0.94496981E+001  0.64382835E+002
 -0.51356087E+002 -0.94222209E+001  0.52096664E+002
 -0.45516151E+002 -0.77797812E+001  0.39792489E+002
 -0.33982452E+002 -0.42546649E+001  0.27403507E+002
 -0.20056407E+002 -0.26597084E-001  0.15193759E+002
  0.52453817E-001  0.43930331E+001  0.30137707E+001
 -0.30460340E+001 -0.87733886E+000  0.11312507E+003
 -0.19825242E+002  0.27611055E+000  0.10129224E+003
 -0.33892391E+002 -0.39342864E+001  0.89054997E+002
 -0.45529644E+002 -0.70268576E+001  0.76678845E+002
 -0.51411477E+002 -0.84696741E+001  0.64366506E+002
 -0.51421230E+002 -0.84400661E+001  0.52066753E+002
 -0.45529467E+002 -0.69103867E+001  0.39758371E+002
 -0.33906529E+002 -0.36107423E+001  0.27381964E+002
 -0.19887461E+002  0.35720448E+000  0.15190328E+002
  0.30095636E+000  0.44080585E+001  0.30224374E+001
 -0.29170936E+001 -0.80605566E+000  0.11312661E+003
 -0.19657424E+002  0.65841138E+000  0.10127031E+003
 -0.33796543E+002 -0.32876523E+001  0.89024938E+002
 -0.45519439E+002 -0.61580868E+001  0.76664454E+002
 -0.51454310E+002 -0.74870527E+001  0.64351486E+002
 -0.51465761E+002 -0.74558009E+001  0.52038682E+002
 -0.45519551E+002 -0.60391751E+001  0.39729121E+002
 -0.33809283E+002 -0.29660371E+001  0.27370446E+002
 -0.19709263E+002  0.73990522E+000  0.15189140E+002
  0.54944882E+000  0.44215804E+001  0.30320756E+001
 -0.27850829E+001 -0.73396072E+000  0.11312714E+003
 -0.19479188E+002  0.10386846E+001  0.10124813E+003
 -0.33681776E+002 -0.26426738E+001  0.88990243E+002
 -0.45485438E+002 -0.52902416E+001  0.76650646E+002
 -0.51468561E+002 -0.65041189E+001  0.64334785E+002
 -0.51480461E+002 -0.64703087E+001  0.52014254E+002
 -0.45482660E+002 -0.51672656E+001  0.39706604E+002
 -0.33693983E+002 -0.23216151E+001  0.27364526E+002
 -0.19522450E+002  0.11216269E+001  0.15189191E+002
  0.79801695E+000  0.44333822E+001  0.30388135E+001
 -0.26495553E+001 -0.66072751E+000  0.11311039E+003
 -0.19289725E+002  0.14167355E+001  0.10122565E+003
 -0.33549004E+002 -0.19995145E+001  0.88952971E+002
 -0.45424166E+002 -0.44227064E+001  0.76633185E+002
 -0.51438838E+002 -0.55205793E+001  0.64317279E+002
 -0.51446269E+002 -0.54842012E+001  0.51994976E+002
 -0.45426672E+002 -0.42968600E+001  0.39682297E+002
 -0.33556817E+002 -0.16778400E+001  0.27369315E+002
 -0.19326454E+002  0.15018476E+001  0.15195670E+002
  0.10468702E+001  0.44434331E+001  0.30440729E+001
 -0.25106925E+001 -0.58535238E+000  0.11310074E+003
 -0.19091229E+002  0.17918834E+001  0.10117781E+003
 -0.33397926E+002 -0.13587597E+001  0.88913141E+002
 -0.45335422E+002 -0.35573893E+001  0.76611279E+002
 -0.51359624E+002 -0.45393611E+001  0.64297298E+002
 -0.51367136E+002 -0.45009141E+001  0.51982426E+002
 -0.45336701E+002 -0.34278361E+001  0.39671814E+002
 -0.33400569E+002 -0.10362197E+001  0.27379397E+002
 -0.19125208E+002  0.18799611E+001  0.15196882E+002
  0.12961935E+001  0.44518653E+001  0.30492386E+001
 -0.23682264E+001 -0.50892267E+000  0.11310254E+003
 -0.18902934E+002  0.21677975E+001  0.10114531E+003
 -0.33225055E+002 -0.72065836E+000  0.88866917E+002
 -0.45216399E+002 -0.26946514E+001  0.76583703E+002
 -0.51242103E+002 -0.35628548E+001  0.64277532E+002
 -0.51249402E+002 -0.35224578E+001  0.51973628E+002
 -0.45217047E+002 -0.25613329E+001  0.39670548E+002
 -0.33227791E+002 -0.39662858E+000  0.27395836E+002
 -0.18921983E+002  0.22565777E+001  0.15185366E+002
  0.15460745E+001  0.44590268E+001  0.30542013E+001
 -0.22216704E+001 -0.43141338E+000  0.11310328E+003
 -0.18687315E+002  0.25402994E+001  0.10107822E+003
 -0.33036599E+002 -0.85379749E-001  0.88820568E+002
 -0.45069133E+002 -0.18351962E+001  0.76552495E+002
 -0.51085556E+002 -0.25919972E+001  0.64256308E+002
 -0.51095722E+002 -0.25497988E+001  0.51971059E+002
 -0.45063810E+002 -0.16982681E+001  0.39682883E+002
 -0.33038986E+002  0.24050339E+000  0.27416152E+002
 -0.18700437E+002  0.26330093E+001  0.15194724E+002
  0.17965682E+001  0.44647269E+001  0.30592880E+001
 -0.20707412E+001 -0.35299305E+000  0.11310420E+003
 -0.18461905E+002  0.29115727E+001  0.10102586E+003
 -0.32834318E+002  0.54743490E+000  0.88776952E+002
 -0.44891687E+002 -0.97945090E+000  0.76514018E+002
 -0.50905567E+002 -0.16264824E+001  0.64235719E+002
 -0.50911234E+002 -0.15828679E+001  0.51973379E+002
 -0.44887673E+002 -0.83905324E+000  0.39700810E+002
 -0.32836112E+002  0.87520449E+000  0.27439530E+002
 -0.18471312E+002  0.30075632E+001  0.15203944E+002
  0.20479627E+001  0.44699813E+001  0.30628334E+001
 -0.19154277E+001 -0.27347193E+000  0.11310494E+003
 -0.18229904E+002  0.32825497E+001  0.10097421E+003
 -0.32619764E+002  0.11779302E+001  0.88736651E+002
 -0.44696281E+002 -0.12683102E+000  0.76477161E+002
 -0.50704186E+002 -0.66475446E+000  0.64217070E+002
 -0.50708771E+002 -0.62014055E+000  0.51978583E+002
 -0.44693751E+002  0.16570626E-001  0.39721652E+002
 -0.32621003E+002  0.15075558E+001  0.27464209E+002
 -0.18235807E+002  0.33809272E+001  0.15210920E+002
  0.22995048E+001  0.44740990E+001  0.30665211E+001
 -0.17553341E+001 -0.19333771E+000  0.11310467E+003
 -0.17990540E+002  0.36521073E+001  0.10092423E+003
 -0.32393549E+002  0.18062009E+001  0.88701813E+002
 -0.44482522E+002  0.72267862E+000  0.76443743E+002
 -0.50493796E+002  0.29461756E+000  0.64202878E+002
 -0.50497305E+002  0.33965737E+000  0.51984599E+002
 -0.44482646E+002  0.86860654E+000  0.39744358E+002
 -0.32395008E+002  0.21375134E+001  0.27487751E+002
 -0.17993090E+002  0.37522149E+001  0.15214025E+002
  0.25511430E+001  0.44768815E+001  0.30708848E+001
 -0.15901981E+001 -0.11277989E+000  0.11310339E+003
 -0.17744335E+002  0.40201996E+001  0.10087304E+003
 -0.32160590E+002  0.24329386E+001  0.88676424E+002
 -0.44258383E+002  0.15697646E+001  0.76418181E+002
 -0.50269783E+002  0.12515186E+001  0.64191631E+002
 -0.50273075E+002  0.12964984E+001  0.51992383E+002
 -0.44260431E+002  0.17173513E+001  0.39764792E+002
 -0.32176062E+002  0.27676828E+001  0.27491394E+002
 -0.17744063E+002  0.41217343E+001  0.15226389E+002
  0.28027181E+001  0.44786090E+001  0.30738234E+001
 -0.14209296E+001 -0.32178459E-001  0.11310158E+003
 -0.17491044E+002  0.43891639E+001  0.10084478E+003
 -0.31936620E+002  0.30617890E+001  0.88675611E+002
 -0.44026379E+002  0.24156389E+001  0.76400036E+002
 -0.50044401E+002  0.22077844E+001  0.64185548E+002
 -0.50046322E+002  0.22524965E+001  0.51997893E+002
 -0.44028127E+002  0.25637502E+001  0.39781109E+002
 -0.31939268E+002  0.33950037E+001  0.27500149E+002
 -0.17488294E+002  0.44896396E+001  0.15233285E+002
  0.30541249E+001  0.44790644E+001  0.30768719E+001
  
POLYGONS 171 855
      4      0      1     11     10
      4      1      2     12     11
      4      2      3     13     12
      4      3      4     14     13
      4      4      5     15     14
      4      5      6     16     15
      4      6      7     17     16
      4      7      8     18     17
      4      8      9     19     18
      4     10     11     21     20
      4     11     12     22     21
      4     12     13     23     22
      4     13     14     24     23
      4     14     15     25     24
      4     15     16     26     25
      4     16     17     27     26
      4     17     18     28     27
      4     18     19     29     28
      4     20     21     31     30
      4     21     22     32     31
      4     22     23     33     32
      4     23     24     34     33
      4     24     25     35     34
      4     25     26     36     35
      4     26     27     37     36
      4     27     28     38     37
      4     28     29     39     38
      4     30     31     41     40
      4     31     32     42     41
      4     32     33     43     42
      4     33     34     44     43
      4     34     35     45     44
      4     35     36     46     45
      4     36     37     47     46
      4     37     38     48     47
      4     38     39     49     48
      4     40     41     51     50
      4     41     42     52     51
      4     42     43     53     52
      4     43     44     54     53
      4     44     45     55     54
      4     45     46     56     55
      4     46     47     57     56
      4     47     48     58     57
      4     48     49     59     58
      4     50     51     61     60
      4     51     52     62     61
      4     52     53     63     62
      4     53     54     64     63
      4     54     55     65     64
      4     55     56     66     65
      4     56     57     67     66
      4     57     58     68     67
      4     58     59     69     68
      4     60     61     71     70
      4     61     62     72     71
      4     62     63     73     72
      4     63     64     74     73
      4     64     65     75     74
      4     65     66     76     75
      4     66     67     77     76
      4     67     68     78     77
      4     68     69     79     78
      4     70     71     81     80
      4     71     72     82     81
      4     72     73     83     82
      4     73     74     84     83
      4     74     75     85     84
      4     75     76     86     85
      4     76     77     87     86
      4     77     78     88     87
      4     78     79     89     88
      4     80     81     91     90
      4     81     82     92     91
      4     82     83     93     92
      4     83     84     94     93
      4     84     85     95     94
      4     85     86     96     95
      4     86     87     97     96
      4     87     88     98     97
      4     88     89     99     98
      4     90     91    101    100
      4     91     92    102    101
      4     92     93    103    102
      4     93     94    104    103
      4     94     95    105    104
      4     95     96    106    105
      4     96     97    107    106
      4     97     98    108    107
      4     98     99    109    108
      4    100    101    111    110
      4    101    102    112    111
      4    102    103    113    112
      4    103    104    114    113
      4    104    105    115    114
      4    105    106    116    115
      4    106    107    117    116
      4    107    108    118    117
      4    108    109    119    118
      4    110    111    121    120
      4    111    112    122    121
      4    112    113    123    122
      4    113    114    124    123
      4    114    115    125    124
      4    115    116    126    125
      4    116    117    127    126
      4    117    118    128    127
      4    118    119    129    128
      4    120    121    131    130
      4    121    122    132    131
      4    122    123    133    132
      4    123    124    134    133
      4    124    125    135    134
      4    125    126    136    135
      4    126    127    137    136
      4    127    128    138    137
      4    128    129    139    138
      4    130    131    141    140
      4    131    132    142    141
      4    132    133    143    142
      4    133    134    144    143
      4    134    135    145    144
      4    135    136    146    145
      4    136    137    147    146
      4    137    138    148    147
      4    138    139    149    148
      4    140    141    151    150
      4    141    142    152    151
      4    142    143    153    152
      4    143    144    154    153
      4    144    145    155    154
      4    145    146    156    155
      4    146    147    157    156
      4    147    148    158    157
      4    148    149    159    158
      4    150    151    161    160
      4    151    152    162    161
      4    152    153    163    162
      4    153    154    164    163
      4    154    155    165    164
      4    155    156    166    165
      4    156    157    167    166
      4    157    158    168    167
      4    158    159    169    168
      4    160    161    171    170
      4    161    162    172    171
      4    162    163    173    172
      4    163    164    174    173
      4    164    165    175    174
      4    165    166    176    175
      4    166    167    177    176
      4    167    168    178    177
      4    168    169    179    178
      4    170    171    181    180
      4    171    172    182    181
      4    172    173    183    182
      4    173    174    184    183
      4    174    175    185    184
      4    175    176    186    185
      4    176    177    187    186
      4    177    178    188    187
      4    178    179    189    188
      4    180    181    191    190
      4    181    182    192    191
      4    182    183    193    192
      4    183    184    194    193
      4    184    185    195    194
      4    185    186    196    195
      4    186    187    197    196
      4    187    188    198    197
      4    188    189    199    198
  
CELL_DATA 171
SCALARS Gamma double
LOOKUP_TABLE default
 -0.41574479E+001
 -0.15631590E+003
 -0.14229916E+003
 -0.10564084E+003
 -0.82721816E+002
 -0.73363469E+002
 -0.90319691E+002
 -0.13386125E+003
 -0.56665889E+002
 -0.41574479E+001
 -0.15631590E+003
 -0.14229916E+003
 -0.10564084E+003
 -0.82721816E+002
 -0.73363469E+002
 -0.90319691E+002
 -0.13386125E+003
 -0.56665889E+002
 -0.42547860E+001
 -0.15731063E+003
 -0.14299805E+003
 -0.10775207E+003
 -0.86500484E+002
 -0.77819245E+002
 -0.94564929E+002
 -0.13627156E+003
 -0.58695410E+002
 -0.43611406E+001
 -0.15822917E+003
 -0.14354461E+003
 -0.11008348E+003
 -0.90603113E+002
 -0.82493351E+002
 -0.98867509E+002
 -0.13870013E+003
 -0.60763481E+002
 -0.44759924E+001
 -0.15906434E+003
 -0.14393031E+003
 -0.11214943E+003
 -0.95053052E+002
 -0.87378484E+002
 -0.10317547E+003
 -0.14113658E+003
 -0.62870055E+002
 -0.45978567E+001
 -0.15980132E+003
 -0.14411729E+003
 -0.11440126E+003
 -0.99974593E+002
 -0.92543669E+002
 -0.10746903E+003
 -0.14353039E+003
 -0.65020927E+002
 -0.47285441E+001
 -0.16045162E+003
 -0.14419142E+003
 -0.11671544E+003
 -0.10500911E+003
 -0.97698906E+002
 -0.11170522E+003
 -0.14576098E+003
 -0.67200707E+002
 -0.48659957E+001
 -0.16100426E+003
 -0.14412127E+003
 -0.11908272E+003
 -0.11019902E+003
 -0.10289716E+003
 -0.11562099E+003
 -0.14786472E+003
 -0.69415513E+002
 -0.50095155E+001
 -0.16144714E+003
 -0.14392381E+003
 -0.12148782E+003
 -0.11515820E+003
 -0.10810995E+003
 -0.11885418E+003
 -0.14990370E+003
 -0.71660577E+002
 -0.51494908E+001
 -0.16153997E+003
 -0.14340084E+003
 -0.12383816E+003
 -0.11906972E+003
 -0.11311480E+003
 -0.12183001E+003
 -0.15165461E+003
 -0.73803696E+002
 -0.51346537E+001
 -0.15665929E+003
 -0.13846815E+003
 -0.12263195E+003
 -0.11920674E+003
 -0.11390880E+003
 -0.12094731E+003
 -0.14870566E+003
 -0.73654135E+002
 -0.46587266E+001
 -0.13835549E+003
 -0.12171970E+003
 -0.11050393E+003
 -0.10856606E+003
 -0.10380919E+003
 -0.10921629E+003
 -0.13273300E+003
 -0.66919081E+002
 -0.38266154E+001
 -0.11048758E+003
 -0.96801330E+002
 -0.90032760E+002
 -0.89688879E+002
 -0.85493586E+002
 -0.89374969E+002
 -0.10715760E+003
 -0.54436325E+002
 -0.28342566E+001
 -0.79388323E+002
 -0.69385444E+002
 -0.66057483E+002
 -0.66650169E+002
 -0.63428619E+002
 -0.65857825E+002
 -0.77955958E+002
 -0.39714610E+002
 -0.17915563E+001
 -0.48619196E+002
 -0.42402214E+002
 -0.41280658E+002
 -0.42145739E+002
 -0.40220134E+002
 -0.41313394E+002
 -0.48317845E+002
 -0.24714688E+002
 -0.81856091E+000
 -0.21541708E+002
 -0.18744617E+002
 -0.18631326E+002
 -0.19216129E+002
 -0.18418026E+002
 -0.18723285E+002
 -0.21655029E+002
 -0.11135103E+002
 -0.16983547E+000
 -0.43158211E+001
 -0.37588562E+001
 -0.38076947E+001
 -0.39630860E+001
 -0.38217750E+001
 -0.38456670E+001
 -0.43977668E+001
 -0.22764939E+001
 -0.20358333E-002
 -0.50129804E-001
 -0.43769850E-001
 -0.45116199E-001
 -0.47341231E-001
 -0.45934438E-001
 -0.45782683E-001
 -0.51804677E-001
 -0.27059359E-001
 -0.00000000E+000
 -0.00000000E+000
 -0.00000000E+000
 -0.00000000E+000
 -0.00000000E+000
 -0.00000000E+000
 -0.00000000E+000
 -0.00000000E+000
 -0.00000000E+000
POINT_DATA 200
VECTORS Uconv double
  0.00000000E+000  0.00000000E+000  0.00000000E+000
  0.00000000E+000  0.00000000E+000  0.00000000E+000
  0.00000000E+000  0.00000000E+000  0.00000000E+000
  0.00000000E+000  0.00000000E+000  0.00000000E+000
  0.00000000E+000  0.00000000E+000  0.00000000E+000
  0.00000000E+000  0.00000000E+000  0.00000000E+000
  0.00000000E+000  0.00000000E+000  0.00000000E+000
  0.00000000E+000  0.00000000E+000  0.00000000E+000
  0.00000000E+000  0.00000000E+000  0.00000000E+000
  0.00000000E+000  0.00000000E+000  0.00000000E+000
  0.00000000E+000  0.00000000E+000  0.00000000E+000
  0.00000000E+000  0.00000000E+000  0.00000000E+000
  0.00000000E+000  0.00000000E+000  0.00000000E+000
  0.00000000E+000  0.00000000E+000  0.00000000E+000
  0.00000000E+000  0.00000000E+000  0.00000000E+000
  0.00000000E+000  0.00000000E+000  0.00000000E+000
  0.00000000E+000  0.00000000E+000  0.00000000E+000
  0.00000000E+000  0.00000000E+000  0.00000000E+000
  0.00000000E+000  0.00000000E+000  0.00000000E+000
  0.00000000E+000  0.00000000E+000  0.00000000E+000
  0.17154608E+002 -0.27149647E+000  0.21792356E+000
  0.15834234E+002  0.50737163E+000  0.25262474E+001
  0.15197543E+002  0.21202446E+000  0.18815180E+001
  0.15444244E+002  0.21057241E-002  0.10540635E+001
  0.15787880E+002 -0.55683958E-002  0.30394305E+000
  0.16049713E+002  0.17057140E-001 -0.13346724E+000
  0.16011990E+002  0.80465802E-002 -0.63364040E+000
  0.15583642E+002  0.11315154E+000 -0.15336047E+001
  0.15622558E+002  0.43381819E+000 -0.11835265E+001
  0.16974257E+002  0.14399495E+000 -0.49102031E-001
  0.17150038E+002 -0.27041032E+000  0.21801832E+000
  0.15913213E+002  0.48652978E+000  0.28567163E+001
  0.15145296E+002  0.23341555E+000  0.19341220E+001
  0.15272494E+002  0.40068062E-002  0.11444042E+001
  0.15547240E+002 -0.21289325E-001  0.35252261E+000
  0.15814508E+002 -0.37348470E-002 -0.17737502E+000
  0.15828314E+002 -0.49858803E-003 -0.73898576E+000
  0.15511344E+002  0.13084509E+000 -0.16067274E+001
  0.15661829E+002  0.43107490E+000 -0.11025240E+001
  0.16977240E+002  0.12437474E+000 -0.92957923E-002
  0.17145365E+002 -0.26886812E+000  0.21670879E+000
  0.15960940E+002  0.46758779E+000  0.18886897E+001
  0.15113015E+002  0.25299583E+000  0.19679977E+001
  0.15099852E+002  0.96407356E-002  0.12446304E+001
  0.15273389E+002 -0.35918389E-001  0.40624705E+000
  0.15535625E+002 -0.22702518E-001 -0.23028503E+000
  0.15628134E+002 -0.63452368E-002 -0.86002010E+000
  0.15455208E+002  0.14891976E+000 -0.16648282E+001
  0.15704417E+002  0.42529490E+000 -0.96975748E+000
  0.16984146E+002  0.56447394E-001 -0.29991056E-001
  0.17144257E+002 -0.26556071E+000  0.21361636E+000
  0.16098924E+002  0.41687430E+000  0.18078687E+001
  0.15106164E+002  0.26832795E+000  0.19589153E+001
  0.14935886E+002  0.18952892E-001  0.13383393E+001
  0.14975617E+002 -0.45601378E-001  0.45795669E+000
  0.15218456E+002 -0.38940710E-001 -0.29593356E+000
  0.15418399E+002 -0.84404855E-002 -0.98532471E+000
  0.15421266E+002  0.16612939E+000 -0.17027496E+001
  0.15818874E+002  0.38541949E+000 -0.12004258E+001
  0.16986381E+002  0.31472374E-001  0.38862370E-002
  0.17141106E+002 -0.27041610E+000  0.20971879E+000
  0.16314540E+002  0.34079812E+000  0.23367371E+001
  0.15129572E+002  0.27883420E+000  0.19359182E+001
  0.14794403E+002  0.32340727E-001  0.14171846E+001
  0.14666617E+002 -0.48504041E-001  0.51159983E+000
  0.14878982E+002 -0.48498553E-001 -0.36279672E+000
  0.15220784E+002 -0.47115308E-002 -0.11056577E+001
  0.15415318E+002  0.18070696E+000 -0.17156096E+001
  0.15854927E+002  0.37796858E+000 -0.10165690E+001
  0.16987918E+002  0.80686878E-002  0.38941812E-001
  0.17133557E+002 -0.28213008E+000  0.19749019E+000
  0.16309644E+002  0.33105901E+000  0.19098652E+001
  0.15187014E+002  0.28134373E+000  0.18802483E+001
  0.14693253E+002  0.49402486E-001  0.14644274E+001
  0.14375157E+002 -0.41730880E-001  0.55876530E+000
  0.14550144E+002 -0.48329769E-001 -0.42867243E+000
  0.15054378E+002  0.52155501E-002 -0.12043574E+001
  0.15430516E+002  0.19274927E+000 -0.16686121E+001
  0.15948005E+002  0.34207869E+000 -0.10127554E+001
  0.16988816E+002 -0.17552408E-001  0.74542152E-001
  0.17127966E+002 -0.28443551E+000  0.17831190E+000
  0.16352493E+002  0.31116615E+000  0.17098128E+001
  0.15280678E+002  0.27640832E+000  0.17893540E+001
  0.14655663E+002  0.67482811E-001  0.14779116E+001
  0.14142657E+002 -0.23838643E-001  0.59264168E+000
  0.14277006E+002 -0.35828052E-001 -0.48538599E+000
  0.14947430E+002  0.19892607E-001 -0.12717087E+001
  0.15488503E+002  0.19918527E+000 -0.16119341E+001
  0.16034004E+002  0.30749022E+000 -0.97136935E+000
  0.16988888E+002 -0.20143891E-001  0.75156449E-001
  0.17112563E+002 -0.27682060E+000  0.24813479E+000
  0.16351371E+002  0.29431652E+000  0.13075679E+001
  0.15410316E+002  0.26002553E+000  0.16740265E+001
  0.14703397E+002  0.82004033E-001  0.14405752E+001
  0.14022018E+002  0.32015003E-002  0.61178110E+000
  0.13789328E+002 -0.57048197E-001 -0.52252627E+000
  0.14923804E+002  0.35968280E-001 -0.12911572E+001
  0.15581433E+002  0.19492621E+000 -0.15223455E+001
  0.16126266E+002  0.26684311E+000 -0.94833034E+000
  0.16986272E+002 -0.14204146E-001  0.12960028E+000
  0.17105225E+002 -0.27874849E+000  0.25536782E+000
  0.16383124E+002  0.26969952E+000  0.11378207E+001
  0.15570827E+002  0.22871273E+000  0.14995653E+001
  0.14850794E+002  0.86206050E-001  0.13441669E+001
  0.13756897E+002 -0.68444380E-002  0.59607004E+000
  0.13878941E+002 -0.12039203E-001 -0.53070087E+000
  0.15006458E+002  0.45072416E-001 -0.12488281E+001
  0.15707570E+002  0.17957497E+000 -0.14146329E+001
  0.16203484E+002  0.23189318E+000 -0.88500470E+000
  0.16985642E+002 -0.31052016E-001  0.15136191E+000
  0.17095258E+002 -0.29071129E+000  0.25947118E+000
  0.16427996E+002  0.24098692E+000  0.10518930E+001
  0.15761723E+002  0.18412442E+000  0.13100059E+001
  0.15107675E+002  0.76073997E-001  0.12016440E+001
  0.14087663E+002  0.24001733E-001  0.53917906E+000
  0.14157868E+002  0.16154734E-001 -0.50049166E+000
  0.15182292E+002  0.47007161E-001 -0.11577479E+001
  0.15861795E+002  0.15114311E+000 -0.12569571E+001
  0.16262540E+002  0.20762781E+000 -0.36793288E+000
  0.16981874E+002 -0.21298106E-001  0.21788104E+000
  0.17106907E+002 -0.28219370E+000 -0.65698128E+000
  0.16584548E+002  0.12429435E+000  0.79134916E+000
  0.15974388E+002  0.12666774E+000  0.11019840E+001
  0.15461300E+002  0.44417050E-001  0.97918076E+000
  0.14593897E+002  0.17389356E-001  0.45712879E+000
  0.14633017E+002  0.13911290E-001 -0.42574756E+000
  0.15473507E+002  0.30547570E-001 -0.98615141E+000
  0.16038167E+002  0.11085606E+000 -0.10770057E+001
  0.16346688E+002  0.16585535E+000 -0.40312685E+000
  0.16980696E+002 -0.45988264E-001  0.23867292E+000
  0.17100897E+002 -0.28655470E+000 -0.67505068E+000
  0.16582941E+002  0.10001414E+000  0.44119171E+000
  0.16204140E+002  0.55392241E-001  0.89658432E+000
  0.15884132E+002 -0.12013057E-001  0.71349616E+000
  0.15264451E+002 -0.30315560E-001  0.33078422E+000
  0.15246145E+002 -0.28721856E-001 -0.32791340E+000
  0.15837959E+002 -0.74365428E-002 -0.77254587E+000
  0.16233675E+002  0.58986197E-001 -0.89132013E+000
  0.16426584E+002  0.12904506E+000 -0.38558600E+000
  0.16978514E+002 -0.65036060E-001  0.26123477E+000
  0.17094022E+002 -0.29024033E+000 -0.69356506E+000
  0.16628039E+002  0.24743592E-001  0.18535455E+000
  0.16435176E+002 -0.23755697E-001  0.66063411E+000
  0.16341278E+002 -0.89986920E-001  0.43627979E+000
  0.16016293E+002 -0.12144241E+000  0.18566628E+000
  0.15970596E+002 -0.10976108E+000 -0.19585434E+000
  0.16243642E+002 -0.68934904E-001 -0.52100289E+000
  0.16443225E+002 -0.20922842E-002 -0.70768322E+000
  0.16483966E+002  0.96418841E-001 -0.39442163E+000
  0.16975441E+002 -0.80603973E-001  0.28503523E+000
  0.17091405E+002 -0.30277872E+000 -0.71380114E+000
  0.16687860E+002 -0.42628907E-001 -0.87763378E-001
  0.16664529E+002 -0.10616277E+000  0.42580931E+000
  0.16793709E+002 -0.18472059E+000  0.16277725E+000
  0.16766920E+002 -0.23557816E+000  0.41192142E-001
  0.16700253E+002 -0.21952173E+000 -0.55374535E-001
  0.16655643E+002 -0.14379685E+000 -0.26835723E+000
  0.16645749E+002 -0.67105568E-001 -0.49143178E+000
  0.16538887E+002  0.65511450E-001 -0.39974627E+000
  0.16971527E+002 -0.11572868E+000  0.35401555E+000
  0.17081581E+002 -0.30271542E+000 -0.73284275E+000
  0.16750620E+002 -0.10934920E+000 -0.33427255E+000
  0.16886080E+002 -0.18868702E+000  0.19787324E+000
  0.17201553E+002 -0.27919497E+000 -0.11111026E+000
  0.17433538E+002 -0.35485234E+000 -0.96216315E-001
  0.17353277E+002 -0.33206547E+000  0.83417726E-001
  0.17039911E+002 -0.22048906E+000 -0.14703123E-001
  0.16845903E+002 -0.13524320E+000 -0.27876593E+000
  0.16589709E+002  0.37293953E-001 -0.40064495E+000
  0.16966884E+002 -0.12364446E+000  0.37096650E+000
  0.17072613E+002 -0.30534203E+000 -0.75481032E+000
  0.16696384E+002 -0.18168079E+000 -0.11320163E+001
  0.17095573E+002 -0.26822347E+000 -0.13720468E-001
  0.17544923E+002 -0.36433641E+000 -0.34779722E+000
  0.17951008E+002 -0.45331484E+000 -0.20768526E+000
  0.17866261E+002 -0.42661372E+000  0.19301977E+000
  0.17361069E+002 -0.29358534E+000  0.20586457E+000
  0.17041796E+002 -0.20419194E+000 -0.85049088E-001
  0.16620368E+002  0.22613703E-001 -0.37338508E+000
  0.16961256E+002 -0.13052558E+000  0.39072438E+000
  0.17061357E+002 -0.31275637E+000 -0.77293316E+000
  0.16765654E+002 -0.26699771E+000 -0.14295433E+001
  0.17285308E+002 -0.33898710E+000 -0.20816665E+000
  0.17802845E+002 -0.43100979E+000 -0.53340143E+000
  0.18294030E+002 -0.52148388E+000 -0.28547347E+000
  0.18203419E+002 -0.49613336E+000  0.26755132E+000
  0.17613431E+002 -0.35382567E+000  0.38589799E+000
  0.17219663E+002 -0.25935558E+000  0.79403144E-001
  0.16663279E+002 -0.31084921E-002 -0.34401246E+000
  0.16954817E+002 -0.14566840E+000  0.43048566E+000
  0.17050465E+002 -0.31341841E+000 -0.79237980E+000
  0.16829822E+002 -0.23752547E+000 -0.12514584E+001
  0.17457960E+002 -0.39153698E+000 -0.38597846E+000
  0.17981490E+002 -0.47654686E+000 -0.66429089E+000
  0.18465986E+002 -0.55549318E+000 -0.32781389E+000