<?xml version="1.0"?>
<VTKFile type="PolyData" version="0.1" byte_order="LittleEndian">
  <PolyData>
    <Piece NumberOfPoints="    165" NumberOfVerts="  0" NumberOfLines="      0"
           NumberOfStrips="  0" NumberOfPolys="      0">
      <Points>
        <DataArray type="Float32" NumberOfComponents="3" format="ascii">
                       0.05178                       0.00931                     113.18169
                      -6.88052                      -0.74602                     109.52989
                     -13.33497                      -1.44987                     105.87596
                     -19.31103                      -2.10272                     102.21922
                     -21.01064                      -2.28869                     101.12184
                     -24.80765                      -2.70471                      98.55860
                     -29.82083                      -3.25489                      94.88876
                     -34.35106                      -3.75315                      91.21175
                     -38.40035                      -4.19954                      87.53123
                     -41.97095                      -4.59404                      83.85036
                     -45.06441                      -4.93659                      80.17077
                     -47.68211                      -5.22715                      76.49335
                     -49.82446                      -5.46559                      72.81792
                     -51.49136                      -5.65173                      69.14395
                     -52.68316                      -5.78537                      65.47108
                     -53.39931                      -5.86618                      61.79862
                     -53.63839                      -5.89389                      58.12611
                     -53.39989                      -5.86832                      54.45355
                     -52.68404                      -5.78944                      50.78103
                     -51.49232                      -5.65738                      47.10812
                     -49.82585                      -5.47235                      43.43399
                     -47.68499                      -5.23452                      39.75780
                     -45.07004                      -4.94400                      36.07861
                     -41.97974                      -4.60092                      32.39666
                     -38.41147                      -4.20533                      28.71397
                     -34.36312                      -3.75749                      25.03300
                     -29.83275                      -3.25776                      21.35683
                     -24.82048                      -2.70672                      17.68641
                     -21.02697                      -2.29082                      15.11838
                     -19.32986                      -2.10514                      14.01741
                     -13.36331                      -1.45384                      10.34614
                      -6.92018                      -0.75236                       6.67331
                       0.00018                       0.00004                       3.00013
                       0.05178                       0.00931                     113.18169
                       2.84881                       6.38147                     109.50124
                       5.45105                      12.31009                     105.81386
                       7.86159                      17.79836                     102.12757
                       8.54793                      19.36007                     101.02380
                      10.08542                      22.85696                      98.45897
                      12.12360                      27.48959                      94.81101
                      13.97135                      31.68565                      91.16519
                      15.62482                      35.43680                      87.51025
                      17.08170                      38.73891                      83.84304
                      18.34144                      41.59212                      80.16628
                      19.40455                      43.99891                      76.48450
                      20.27204                      45.96255                      72.80166
                      20.94502                      47.48608                      69.12027
                      21.42436                      48.57161                      65.44134
                      21.71088                      49.22087                      61.76490
                      21.80527                      49.43520                      58.09018
                      21.70782                      49.21498                      54.41586
                      21.41846                      48.55973                      50.74067
                      20.93665                      47.46812                      47.06377
                      20.26184                      45.93880                      43.38495
                      19.39335                      43.97023                      39.70467
                      18.33013                      41.56002                      36.02477
                      17.07118                      38.70581                      32.34806
                      15.61591                      35.40622                      28.67733
                      13.96437                      31.66120                      25.01448
                      12.11784                      27.47359                      21.35749
                      10.07843                      22.84830                      17.70004
                       8.53707                      19.35256                      15.13546
                       7.84788                      17.78954                      14.03477
                       5.42558                      12.29634                      10.36166
                       2.81031                       6.36717                       6.68215
                       0.00018                       0.00004                       3.00013
                       0.05178                       0.00931                     113.18169
                       4.15158                      -5.61495                     109.50307
                       7.96613                     -10.84817                     105.81809
                      11.49886                     -15.69237                     102.13380
                      12.50436                     -17.07055                     101.03020
                      14.75561                     -20.15530                      98.46389
                      17.73804                     -24.24021                      94.81143
                      20.44076                     -27.93962                      91.16154
                      22.85938                     -31.24743                      87.50483
                      24.99128                     -34.16038                      83.83824
                      26.83585                     -36.67830                      80.16354
                      28.39359                     -38.80264                      76.48409
                      29.66554                     -40.53565                      72.80307
                      30.65296                     -41.87976                      69.12278
                      31.35687                     -42.83699                      65.44441
                      31.77827                     -43.40916                      61.76822
                      31.91802                     -43.59769                      58.09359
                      31.77643                     -43.40303                      54.41933
                      31.35326                     -42.82476                      50.74426
                      30.64769                     -41.86153                      47.06769
                      29.65884                     -40.51179                      43.38968
                      28.38578                     -38.77395                      39.71103
                      26.82728                     -36.64611                      36.03357
                      24.98251                     -34.12700                      32.35938
                      22.85130                     -31.21634                      28.68999
                      20.43414                     -27.91482                      25.02593
                      17.73269                     -24.22471                      21.36491
                      14.74907                     -20.14888                      17.70250
                      12.49335                     -17.06729                      15.13586
                      11.48450                     -15.68896                      14.03501
                       7.93855                     -10.84409                      10.36258
                       4.11096                      -5.61468                       6.68365
                       0.00018                       0.00004                       3.00013
                      -0.09922                      -0.01064                      15.12051
                      -2.10261                      -0.22829                      15.12075
                      -4.20539                      -0.45698                      15.12129
                      -6.30815                      -0.68586                      15.12191
                      -8.41088                      -0.91491                      15.12240
                     -10.51360                      -1.14410                      15.12261
                     -12.61630                      -1.37339                      15.12246
                     -14.71898                      -1.60274                      15.12189
                     -16.82165                      -1.83212                      15.12091
                     -18.92431                      -2.06150                      15.11967
                     -21.02697                      -2.29082                      15.11838
                       0.04056                       0.09163                      15.12051
                       0.85393                       1.93538                      15.12392
                       1.70766                       3.87063                      15.12739
                       2.56137                       5.80589                      15.13057
                       3.41508                       7.74114                      15.13331
                       4.26877                       9.67639                      15.13550
                       5.12246                      11.61164                      15.13706
                       5.97613                      13.54688                      15.13790
                       6.82979                      15.48212                      15.13800
                       7.68343                      17.41735                      15.13723
                       8.53707                      19.35256                      15.13546
                       0.05925                      -0.08056                      15.12051
                       1.24933                      -1.70676                      15.12392
                       2.49854                      -3.41361                      15.12738
                       3.74781                      -5.12040                      15.13053
                       4.99714                      -6.82716                      15.13325
                       6.24649                      -8.53389                      15.13541
                       7.49587                     -10.24059                      15.13694
                       8.74526                     -11.94727                      15.13777
                       9.99465                     -13.65394                      15.13790
                      11.24402                     -15.36061                      15.13726
                      12.49335                     -17.06729                      15.13586
                      -0.08372                      -0.00779                     101.06337
                      -2.08703                      -0.22568                     101.06530
                      -4.18972                      -0.45456                     101.06876
                      -6.29240                      -0.68359                     101.07346
                      -8.39505                      -0.91274                     101.07919
                     -10.49769                      -1.14199                     101.08575
                     -12.60030                      -1.37131                     101.09295
                     -14.70290                      -1.60067                     101.10053
                     -16.80549                      -1.83004                     101.10821
                     -18.90807                      -2.05939                     101.11551
                     -21.01064                      -2.28869                     101.12184
                       0.05606                       0.09449                     101.06337
                       0.86919                       1.93859                     101.06063
                       1.72259                       3.87425                     101.05744
                       2.57592                       5.80993                     101.05378
                       3.42919                       7.74563                     101.04958
                       4.28242                       9.68135                     101.04487
                       5.13560                      11.61708                     101.03979
                       5.98874                      13.55282                     101.03462
                       6.84185                      15.48857                     101.02976
                       7.69491                      17.42432                     101.02587
                       8.54793                      19.36007                     101.02380
                       0.07475                      -0.07771                     101.06337
                       1.26501                      -1.70404                     101.06125
                       2.51421                      -3.41118                     101.05873
                       3.76328                      -5.11841                     101.05577
                       5.01224                      -6.82571                     101.05230
                       6.26111                      -8.53308                     101.04836
                       7.50990                     -10.24049                     101.04406
                       8.75862                     -11.94795                     101.03965
                      10.00727                     -13.65545                     101.03549
                      11.25585                     -15.36298                     101.03211
                      12.50436                     -17.07055                     101.03020
        </DataArray>
      </Points>
      <PointData>
        <DataArray type="Float32" Name="TranslationalVelocity" NumberOfComponents="3" format="ascii">
                       1.74520                       0.33755                      -0.01589
                       2.76555                     -12.28202                       0.64055
                       3.66754                     -24.05789                       1.30160
                       4.50225                     -34.99938                       1.88017
                       4.74055                     -38.12043                       2.03744
                       5.31051                     -45.10728                       2.32358
                       6.20537                     -54.34934                       2.48396
                       7.19868                     -62.72132                       2.39269
                       8.25440                     -70.22785                       2.13978
                       9.29637                     -76.87487                       1.84014
                      10.24428                     -82.66489                       1.58159
                      11.03690                     -87.59698                       1.40686
                      11.65139                     -91.66420                       1.31254
                      12.09302                     -94.85600                       1.27416
                      12.37592                     -97.16161                       1.26668
                      12.52554                     -98.56817                       1.26898
                      12.56847                     -99.06330                       1.27057
                      12.51185                     -98.64032                       1.27054
                      12.34363                     -97.29818                       1.26729
                      12.03015                     -95.04333                       1.24742
                      11.53793                     -91.88531                       1.18396
                      10.85051                     -87.83350                       1.04642
                       9.97631                     -82.89761                       0.81552
                       8.96797                     -77.08376                       0.51153
                       7.90895                     -70.39500                       0.20445
                       6.86677                     -62.83847                      -0.02180
                       5.86676                     -54.42480                      -0.10952
                       4.87435                     -45.16906                      -0.07472
                       4.14278                     -38.19960                      -0.02736
                       3.81183                     -35.09380                      -0.01329
                       2.63950                     -24.21743                       0.01124
                       1.36586                     -12.52629                       0.00874
                       0.00112                       0.00042                       0.00153
                       1.74520                       0.33755                      -0.01589
                     -10.13200                       5.34624                      -0.40263
                     -21.24459                       9.96200                      -0.85187
                     -31.49535                      14.29303                      -1.12952
                     -34.39241                      15.55489                      -1.15129
                     -40.80811                      18.51075                      -0.99002
                     -49.16969                      22.68747                      -0.38992
                     -56.63376                      26.63817                       0.34130
                     -63.26633                      30.16143                       0.92587
                     -69.14096                      33.08026                       1.19209
                     -74.30662                      35.31292                       1.12911
                     -78.76831                      36.89735                       0.85307
                     -82.49753                      37.94894                       0.51338
                     -85.45515                      38.59759                       0.22039
                     -87.60529                      38.95223                       0.02577
                     -88.92107                      39.09029                      -0.06997
                     -89.38601                      39.05626                      -0.10066
                     -88.99466                      38.85908                      -0.11601
                     -87.75188                      38.47708                      -0.16344
                     -85.67068                      37.86515                      -0.27395
                     -82.76936                      36.96780                      -0.45510
                     -79.07283                      35.71616                      -0.68267
                     -74.61205                      34.02638                      -0.89237
                     -69.41387                      31.82715                      -0.99590
                     -63.48775                      29.09329                      -0.92250
                     -56.81865                      25.86363                      -0.66513
                     -49.37476                      22.23006                      -0.30254
                     -41.12732                      18.28785                       0.04419
                     -34.86725                      15.37919                       0.21870
                     -32.06121                      14.09592                       0.27108
                     -22.17561                       9.65403                       0.34751
                     -11.47502                       4.97246                       0.22941
                       0.00112                       0.00042                       0.00153
                       1.74520                       0.33755                      -0.01589
                      11.54816                       7.66761                      -0.33150
                      20.58829                      14.51866                      -0.73300
                      28.98194                      20.82485                      -1.00108
                      31.38976                      22.59862                      -1.02882
                      36.86115                      26.46803                      -0.90422
                      44.27170                      31.38768                      -0.38906
                      51.11557                      35.71145                       0.26149
                      57.28631                      39.58635                       0.80414
                      62.68468                      43.14811                       1.08195
                      67.25476                      46.46780                       1.07271
                      70.99525                      49.53180                       0.86151
                      73.94633                      52.26276                       0.57170
                      76.16398                      54.55877                       0.30564
                      77.70000                      56.32176                       0.11994
                      78.59617                      57.47095                       0.02450
                      78.87974                      57.95322                      -0.00793
                      78.55652                      57.75129                      -0.02471
                      77.61294                      56.88150                      -0.07245
                      76.01733                      55.39051                      -0.17831
                      73.73109                      53.34081                      -0.33999
                      70.71252                      50.80105                      -0.52239
                      66.92041                      47.83601                      -0.66152
                      62.33311                      44.48169                      -0.69263
                      56.95857                      40.73128                      -0.58489
                      50.83083                      36.54061                      -0.36053
                      44.00019                      31.84689                      -0.09482
                      36.50447                      26.60664                       0.13650
                      30.86750                      22.60807                       0.25970
                      28.35209                      20.81504                       0.30506
                      19.54517                      14.47215                       0.38696
                      10.10640                       7.52923                       0.27486
                       0.00112                       0.00042                       0.00153
                       0.01122                      -0.17874                       0.00434
                       0.40301                      -3.79690                       0.00589
                       0.81552                      -7.60226                       0.01198
                       1.22916                     -11.41442                       0.01957
                       1.64379                     -15.23229                       0.02608
                       2.05924                     -19.05482                       0.02946
                       2.47534                     -22.88092                       0.02826
                       2.89192                     -26.70954                       0.02161
                       3.30883                     -30.53957                       0.00922
                       3.72583                     -34.36995                      -0.00769
                       4.14278                     -38.19960                      -0.02736
                      -0.17300                       0.07304                       0.00434
                      -3.49646                       1.53956                       0.08892
                      -6.98386                       3.07838                       0.17361
                     -10.47040                       4.61680                       0.24816
                     -13.95627                       6.15488                       0.30743
                     -17.44163                       7.69267                       0.34752
                     -20.92667                       9.23024                       0.36588
                     -24.41157                      10.76764                       0.36141
                     -27.89651                      12.30493                       0.33452
                     -31.38167                      13.84208                       0.28616
                     -34.86725                      15.37919                       0.21870
                       0.13715                       0.10669                       0.00434
                       3.07135                       2.25444                       0.08919
                       6.15400                       4.51105                       0.17420
                       9.23912                       6.76966                       0.24944
                      12.32629                       9.02994                       0.31008
                      15.41506                      11.29155                       0.35249
                      18.50500                      13.55416                       0.37435
                      21.59565                      15.81744                       0.37482
                      24.68660                      18.08107                       0.35454
                      27.77735                      20.34472                       0.31515
                      30.86750                      22.60807                       0.25970
                       0.59458                      -0.07770                       0.00491
                       0.98834                      -3.70434                       0.07974
                       1.40268                      -7.51643                       0.21162
                       1.81800                     -11.33336                       0.38786
                       2.23416                     -15.15435                       0.59833
                       2.65104                     -18.97859                       0.83325
                       3.06849                     -22.80529                       1.08304
                       3.48636                     -26.63365                       1.33824
                       3.90448                     -30.46284                       1.58937
                       4.32259                     -34.29204                       1.82599
                       4.74055                     -38.12043                       2.03744
                       0.41036                       0.17408                       0.00491
                      -2.92185                       1.64751                      -0.13371
                      -6.41854                       3.19347                      -0.28336
                      -9.91454                       4.73893                      -0.43448
                     -13.41009                       6.28401                      -0.58366
                     -16.90547                       7.82883                      -0.72678
                     -20.40099                       9.37354                      -0.85901
                     -23.89701                      10.91832                      -0.97473
                     -27.39393                      12.46336                      -1.06754
                     -30.89223                      14.00880                      -1.12936
                     -34.39241                      15.55489                      -1.15129
                       0.72051                       0.20773                       0.00491
                       3.66241                       2.35647                      -0.11002
                       6.74895                       4.61049                      -0.23558
                       9.83415                       6.86323                      -0.36430
                      12.91800                       9.11477                      -0.49356