# vtk DataFile Version 2.0
BldPointCP.BldA
ASCII
 
DATASET POLYDATA
POINTS 9 double
 -0.10495417E+002 -0.38316580E+001  0.10659611E+003
 -0.26316428E+002 -0.95713591E+001  0.95097379E+002
 -0.38701971E+002 -0.14183558E+002  0.82836109E+002
 -0.46910230E+002 -0.17316982E+002  0.70453858E+002
 -0.49559317E+002 -0.18351464E+002  0.58438095E+002
 -0.46895220E+002 -0.17340994E+002  0.46433450E+002
 -0.38671167E+002 -0.14174929E+002  0.34045112E+002
 -0.26394051E+002 -0.95591664E+001  0.21647252E+002
 -0.10783289E+002 -0.38855525E+001  0.98282975E+001
  
POINT_DATA 9
SCALARS Gamma_LL double
LOOKUP_TABLE default
 -0.40701336E+001
 -0.15525125E+003
 -0.14146484E+003
 -0.10373592E+003
 -0.79210455E+002
 -0.69108042E+002
 -0.86187788E+002
 -0.13148407E+003
 -0.54679659E+002
VECTORS Vind_CP double
  0.95062726E-001 -0.27637389E+000  0.76047776E-001
 -0.68861572E+000  0.12607226E-001  0.65145713E+000
 -0.10185159E+001 -0.53382339E-001  0.71881211E+000
 -0.10207590E+001 -0.10878392E+000  0.37485334E+000
 -0.77280889E+000 -0.16634402E+000  0.46473143E-001
 -0.74107944E+000 -0.75390149E-001 -0.18135773E+000
 -0.73636665E+000 -0.44349090E-001 -0.45964318E+000
 -0.65445100E+000 -0.39712741E-001 -0.60359033E+000
 -0.22417780E+000  0.17348681E-002 -0.83126521E-001
VECTORS Vtot_CP double
  0.75579051E+001  0.18995908E+002 -0.14786542E+001
 -0.22695612E+001  0.48951873E+002 -0.33140764E+001
 -0.11220296E+002  0.72501597E+002 -0.39862845E+001
 -0.18958262E+002  0.88163430E+002 -0.34876275E+001
 -0.21875503E+002  0.93208911E+002 -0.32847572E+001
 -0.19478835E+002  0.87866568E+002 -0.32195051E+001
 -0.11919020E+002  0.71730040E+002 -0.24617110E+001
 -0.16346385E+001  0.48434940E+002 -0.12446091E+001
  0.98720412E+001  0.19684180E+002 -0.11633890E+000
VECTORS Vstr_CP double
  0.97371576E+001 -0.19272282E+002  0.15547020E+001
  0.18780946E+002 -0.48939266E+002  0.39655336E+001
  0.27401780E+002 -0.72554979E+002  0.47050967E+001
  0.35137503E+002 -0.88272214E+002  0.38624808E+001
  0.38302694E+002 -0.93375255E+002  0.33312304E+001
  0.35937756E+002 -0.87941958E+002  0.30381474E+001
  0.28382653E+002 -0.71774389E+002  0.20020678E+001
  0.18180187E+002 -0.48474653E+002  0.64101876E+000
  0.71037810E+001 -0.19682445E+002  0.33212384E-001
VECTORS Vwnd_CP double
  0.17200000E+002  0.00000000E+000  0.00000000E+000
  0.17200000E+002  0.00000000E+000  0.00000000E+000
  0.17200000E+002  0.00000000E+000  0.00000000E+000
  0.17200000E+002  0.00000000E+000  0.00000000E+000
  0.17200000E+002  0.00000000E+000  0.00000000E+000
  0.17200000E+002  0.00000000E+000  0.00000000E+000
  0.17200000E+002  0.00000000E+000  0.00000000E+000
  0.17200000E+002  0.00000000E+000  0.00000000E+000
  0.17200000E+002  0.00000000E+000  0.00000000E+000
VECTORS Tangent double
 -0.90940669E+000  0.41557897E+000 -0.16540708E-001
 -0.34568840E+000  0.93834807E+000 -0.15569671E-002
 -0.34008829E+000  0.94038256E+000 -0.45389268E-002
 -0.32010038E+000  0.94735669E+000 -0.71447541E-002
 -0.31206266E+000  0.95006150E+000  0.21284625E-003
 -0.31490119E+000  0.94911562E+000  0.40959860E-002
 -0.32220085E+000  0.94666760E+000  0.26574448E-002
 -0.32901363E+000  0.94432362E+000  0.17117920E-002
 -0.33292845E+000  0.94295134E+000  0.11938230E-002
VECTORS Normal double
 -0.27045176E+000 -0.56067687E+000  0.78262206E+000
 -0.59645870E+000 -0.21845448E+000  0.77234361E+000
 -0.68131620E+000 -0.24306463E+000  0.69045479E+000
 -0.85473579E+000 -0.28553576E+000  0.43346979E+000
 -0.95006076E+000 -0.31206269E+000  0.11953459E-002
 -0.85438935E+000 -0.28158783E+000 -0.43672318E+000
 -0.68641598E+000 -0.23168851E+000 -0.68931382E+000
 -0.61275596E+000 -0.21211152E+000 -0.76127449E+000
 -0.48293996E+000 -0.16942426E+000 -0.85910675E+000
VECTORS Orth double
 -0.31596728E+000 -0.71619520E+000 -0.62227736E+000
 -0.72438701E+000 -0.26791890E+000 -0.63520306E+000
 -0.64818839E+000 -0.23790804E+000 -0.72336131E+000
 -0.40861043E+000 -0.14486072E+000 -0.90113977E+000
 -0.12020735E-002 -0.17080596E-003 -0.99999926E+000
  0.41334741E+000  0.14102421E+000 -0.89958662E+000
  0.65193536E+000  0.22392161E+000 -0.72445800E+000
  0.71852639E+000  0.25151859E+000 -0.64842750E+000
  0.80989360E+000  0.28659762E+000 -0.51179504E+000
