# vtk DataFile Version 2.0

ASCII
 
DATASET POLYDATA
POINTS 200 double
  0.38300601E+000  0.86294405E-001  0.11318046E+003
  0.42050100E+001  0.20176077E+002  0.10074528E+003
  0.69749161E+001  0.34552014E+002  0.88696172E+002
  0.93261271E+001  0.46567988E+002  0.76568022E+002
  0.10465879E+002  0.52299943E+002  0.64212212E+002
  0.10479223E+002  0.52170041E+002  0.51946172E+002
  0.93368522E+001  0.46342694E+002  0.39638503E+002
  0.69503635E+001  0.34451424E+002  0.27387460E+002
  0.40673257E+001  0.20145788E+002  0.15262301E+002
  0.15520158E-003  0.22087610E-004  0.30001972E+001
  0.37465864E+001 -0.29029301E+001  0.11320985E+003
  0.85061835E+001  0.19192388E+002  0.10073062E+003
  0.10009946E+002  0.33936473E+002  0.88678806E+002
  0.11739613E+002  0.46115930E+002  0.76560471E+002
  0.12676686E+002  0.51851772E+002  0.64211325E+002
  0.12729650E+002  0.51696860E+002  0.51945373E+002
  0.11889133E+002  0.45845321E+002  0.39637025E+002
  0.10310489E+002  0.33784776E+002  0.27387424E+002
  0.84758815E+001  0.19243216E+002  0.15262874E+002
  0.44101412E+001 -0.89387487E+000  0.30547125E+001
  0.38333223E+001 -0.29656738E+001  0.11319472E+003
  0.90049243E+001  0.19036661E+002  0.10072642E+003
  0.10786591E+002  0.33745297E+002  0.88683867E+002
  0.12745274E+002  0.45880255E+002  0.76559472E+002
  0.13788766E+002  0.51602359E+002  0.64212226E+002
  0.13836158E+002  0.51456067E+002  0.51947230E+002
  0.12885827E+002  0.45619434E+002  0.39640825E+002
  0.11087743E+002  0.33588214E+002  0.27393737E+002
  0.89914910E+001  0.19083408E+002  0.15266900E+002
  0.45640453E+001 -0.97176188E+000  0.30580981E+001
  0.39206130E+001 -0.30256302E+001  0.11317505E+003
  0.95020140E+001  0.18875428E+002  0.10072251E+003
  0.11559672E+002  0.33541189E+002  0.88688000E+002
  0.13745289E+002  0.45626435E+002  0.76556857E+002
  0.14895275E+002  0.51334383E+002  0.64212547E+002
  0.14937304E+002  0.51196361E+002  0.51950044E+002
  0.13877492E+002  0.45376415E+002  0.39646365E+002
  0.11860950E+002  0.33379558E+002  0.27401371E+002
  0.95041279E+001  0.18917327E+002  0.15271219E+002
  0.47164521E+001 -0.10496180E+001  0.30610253E+001
  0.40040886E+001 -0.30903709E+001  0.11316858E+003
  0.99974474E+001  0.18708749E+002  0.10071926E+003
  0.12328880E+002  0.33324136E+002  0.88690737E+002
  0.14739342E+002  0.45355164E+002  0.76552595E+002
  0.15995832E+002  0.51047934E+002  0.64212653E+002
  0.16032937E+002  0.50918388E+002  0.51953451E+002
  0.14863871E+002  0.45116524E+002  0.39653754E+002
  0.12629785E+002  0.33158496E+002  0.27410925E+002
  0.10013741E+002  0.18745189E+002  0.15275409E+002
  0.48675998E+001 -0.11268809E+001  0.30673171E+001
  0.40820172E+001 -0.31616379E+001  0.11316489E+003
  0.10490750E+002  0.18534555E+002  0.10071271E+003
  0.13094082E+002  0.33094615E+002  0.88692451E+002
  0.15726469E+002  0.45064802E+002  0.76545776E+002
  0.17089532E+002  0.50741726E+002  0.64211410E+002
  0.17122588E+002  0.50621916E+002  0.51957565E+002
  0.15844665E+002  0.44839871E+002  0.39662973E+002
  0.13394137E+002  0.32925472E+002  0.27421833E+002
  0.10520299E+002  0.18567184E+002  0.15280209E+002
  0.50175537E+001 -0.12037490E+001  0.30733494E+001
  0.41646254E+001 -0.32248970E+001  0.11315772E+003
  0.10982720E+002  0.18356004E+002  0.10070716E+003
  0.13854850E+002  0.32852035E+002  0.88692340E+002
  0.16706834E+002  0.44757722E+002  0.76537047E+002
  0.18176618E+002  0.50418303E+002  0.64210175E+002
  0.18206172E+002  0.50307756E+002  0.51962488E+002
  0.16819596E+002  0.44546571E+002  0.39673637E+002
  0.14153745E+002  0.32680146E+002  0.27434386E+002
  0.11022726E+002  0.18380039E+002  0.15288774E+002
  0.51658890E+001 -0.12807989E+001  0.30760228E+001
  0.42487417E+001 -0.32851183E+001  0.11315655E+003
  0.11474130E+002  0.18174959E+002  0.10070728E+003
  0.14610264E+002  0.32594281E+002  0.88687854E+002
  0.17680366E+002  0.44435117E+002  0.76527128E+002
  0.19256538E+002  0.50077072E+002  0.64208900E+002
  0.19283439E+002  0.49975703E+002  0.51967297E+002
  0.17788533E+002  0.44236726E+002  0.39686876E+002
  0.14908256E+002  0.32422339E+002  0.27449003E+002
  0.11523044E+002  0.18190945E+002  0.15293515E+002
  0.53127981E+001 -0.13575850E+001  0.30782813E+001
  0.43339109E+001 -0.33423511E+001  0.11315180E+003
  0.11963917E+002  0.17988302E+002  0.10070722E+003
  0.15361689E+002  0.32327221E+002  0.88684886E+002
  0.18646332E+002  0.44096379E+002  0.76516001E+002
  0.20328566E+002  0.49717127E+002  0.64206269E+002
  0.20353142E+002  0.49623832E+002  0.51974128E+002
  0.18751308E+002  0.43911539E+002  0.39699860E+002
  0.15657911E+002  0.32153524E+002  0.27464458E+002
  0.12020264E+002  0.17996755E+002  0.15297489E+002
  0.54587714E+001 -0.14331876E+001  0.30802798E+001
  0.44182190E+001 -0.34002061E+001  0.11314634E+003
  0.12452315E+002  0.17797131E+002  0.10071325E+003
  0.16109382E+002  0.32051809E+002  0.88684902E+002
  0.19605056E+002  0.43743476E+002  0.76504424E+002
  0.21394751E+002  0.49345610E+002  0.64204550E+002
  0.21418567E+002  0.49262848E+002  0.51978931E+002
  0.19708523E+002  0.43573184E+002  0.39712126E+002
  0.16403782E+002  0.31877446E+002  0.27475774E+002
  0.12514437E+002  0.17797735E+002  0.15300798E+002
  0.56026386E+001 -0.15098163E+001  0.30814068E+001
  0.45030560E+001 -0.34567619E+001  0.11314002E+003
  0.12938897E+002  0.17600714E+002  0.10072352E+003
  0.16852188E+002  0.31765630E+002  0.88684586E+002
  0.20557236E+002  0.43379250E+002  0.76493957E+002
  0.22454601E+002  0.48962254E+002  0.64203192E+002
  0.22478322E+002  0.48889043E+002  0.51982726E+002
  0.20661155E+002  0.43224973E+002  0.39721318E+002
  0.17145196E+002  0.31592284E+002  0.27485109E+002
  0.13005553E+002  0.17594092E+002  0.15303182E+002
  0.57455847E+001 -0.15852677E+001  0.30823950E+001
  0.45906955E+001 -0.35073922E+001  0.11312647E+003
  0.13423567E+002  0.17399742E+002  0.10074416E+003
  0.17590550E+002  0.31470359E+002  0.88685443E+002
  0.21502700E+002  0.43003869E+002  0.76484494E+002
  0.23509561E+002  0.48571292E+002  0.64202657E+002
  0.23533321E+002  0.48504974E+002  0.51985491E+002
  0.21608665E+002  0.42866254E+002  0.39728079E+002
  0.17882210E+002  0.31298683E+002  0.27491769E+002
  0.13493764E+002  0.17386019E+002  0.15303362E+002
  0.58875281E+001 -0.16598866E+001  0.30841225E+001
  0.46805181E+001 -0.35562024E+001  0.11312379E+003
  0.13905962E+002  0.17193683E+002  0.10077153E+003
  0.18323896E+002  0.31165341E+002  0.88686508E+002
  0.22441385E+002  0.42617687E+002  0.76475764E+002
  0.24559811E+002  0.48173359E+002  0.64203426E+002
  0.24585830E+002  0.48118098E+002  0.51985645E+002
  0.22550122E+002  0.42494462E+002  0.39734055E+002
  0.18614299E+002  0.30995768E+002  0.27497025E+002
  0.13978866E+002  0.17173613E+002  0.15301292E+002
  0.60290244E+001 -0.17328657E+001  0.30805726E+001
  0.47699207E+001 -0.36056864E+001  0.11311715E+003
  0.14385747E+002  0.16982272E+002  0.10080437E+003
  0.19052387E+002  0.30851914E+002  0.88688658E+002
  0.23373818E+002  0.42222351E+002  0.76469327E+002
  0.25604902E+002  0.47767298E+002  0.64205063E+002
  0.25633339E+002  0.47721344E+002  0.51984178E+002
  0.23486947E+002  0.42115022E+002  0.39735709E+002
  0.19341626E+002  0.30684577E+002  0.27499434E+002
  0.14460756E+002  0.16956813E+002  0.15296271E+002
  0.61693304E+001 -0.18055589E+001  0.30768256E+001
  0.48595671E+001 -0.36548762E+001  0.11310523E+003
  0.14863063E+002  0.16766289E+002  0.10084230E+003
  0.19775740E+002  0.30530292E+002  0.88691998E+002
  0.24300159E+002  0.41819133E+002  0.76465866E+002
  0.26645619E+002  0.47356339E+002  0.64208969E+002
  0.26677396E+002  0.47320307E+002  0.51978969E+002
  0.24418413E+002  0.41726665E+002  0.39732603E+002
  0.20064532E+002  0.30366532E+002  0.27497631E+002
  0.14939244E+002  0.16735407E+002  0.15288759E+002
  0.63096958E+001 -0.18755555E+001  0.30733027E+001
  0.49522040E+001 -0.37005216E+001  0.11309589E+003
  0.15337141E+002  0.16543814E+002  0.10087760E+003
  0.20493924E+002  0.30201444E+002  0.88696927E+002
  0.25220482E+002  0.41408283E+002  0.76465792E+002
  0.27678565E+002  0.46931434E+002  0.64213795E+002
  0.27713650E+002  0.46903743E+002  0.51972601E+002
  0.25343648E+002  0.41328270E+002  0.39726540E+002
  0.20782048E+002  0.30039817E+002  0.27493721E+002
  0.15414067E+002  0.16509013E+002  0.15278706E+002
  0.64471736E+001 -0.19483908E+001  0.30689022E+001
  0.50459543E+001 -0.37468000E+001  0.11308571E+003
  0.15807673E+002  0.16314763E+002  0.10090933E+003
  0.21206185E+002  0.29864587E+002  0.88700817E+002
  0.26133492E+002  0.40986772E+002  0.76467159E+002
  0.28701117E+002  0.46486780E+002  0.64217752E+002
  0.28738967E+002  0.46465303E+002  0.51966885E+002
  0.26260291E+002  0.40915111E+002  0.39719984E+002
  0.21493669E+002  0.29704034E+002  0.27488600E+002
  0.15884838E+002  0.16277187E+002  0.15267616E+002
  0.65835141E+001 -0.20205261E+001  0.30648038E+001
  0.51455923E+001 -0.37829741E+001  0.11307244E+003
  0.16274294E+002  0.16079189E+002  0.10093576E+003
  0.21911696E+002  0.29518945E+002  0.88703299E+002
  0.27038419E+002  0.40552699E+002  0.76468907E+002
  0.29711212E+002  0.46018646E+002  0.64220276E+002
  0.29750666E+002  0.46000408E+002  0.51962669E+002
  0.27166959E+002  0.40484981E+002  0.39714533E+002
  0.22197931E+002  0.29356758E+002  0.27485522E+002
  0.16349794E+002  0.16036687E+002  0.15259720E+002
  0.67184096E+001 -0.20922754E+001  0.30607372E+001
  0.52423683E+001 -0.38281116E+001  0.11305601E+003
  0.16736397E+002  0.15837755E+002  0.10095229E+003
  0.22611732E+002  0.29167500E+002  0.88706513E+002
  0.27935527E+002  0.40106255E+002  0.76470528E+002
  0.30708753E+002  0.45528038E+002  0.64221237E+002
  0.30747985E+002  0.45508961E+002  0.51960587E+002
  0.28063925E+002  0.40038879E+002  0.39710674E+002
  0.22896323E+002  0.29002148E+002  0.27480850E+002
  0.16810880E+002  0.15792762E+002  0.15249580E+002
  0.68518014E+001 -0.21637471E+001  0.30580913E+001
  0.53441373E+001 -0.38669903E+001  0.11305026E+003
  0.17193952E+002  0.15591263E+002  0.10096186E+003
  0.23307012E+002  0.28810593E+002  0.88710873E+002
  0.28826085E+002  0.39650261E+002  0.76472242E+002
  0.31695458E+002  0.45019114E+002  0.64221187E+002
  0.31734918E+002  0.45000518E+002  0.51960277E+002
  0.28953622E+002  0.39581693E+002  0.39707791E+002
  0.23589468E+002  0.28641467E+002  0.27474779E+002
  0.17267091E+002  0.15543443E+002  0.15242006E+002
  0.69843894E+001 -0.22338303E+001  0.30566971E+001
  
POLYGONS 171 855
      4      0      1     11     10
      4      1      2     12     11
      4      2      3     13     12
      4      3      4     14     13
      4      4      5     15     14
      4      5      6     16     15
      4      6      7     17     16
      4      7      8     18     17
      4      8      9     19     18
      4     10     11     21     20
      4     11     12     22     21
      4     12     13     23     22
      4     13     14     24     23
      4     14     15     25     24
      4     15     16     26     25
      4     16     17     27     26
      4     17     18     28     27
      4     18     19     29     28
      4     20     21     31     30
      4     21     22     32     31
      4     22     23     33     32
      4     23     24     34     33
      4     24     25     35     34
      4     25     26     36     35
      4     26     27     37     36
      4     27     28     38     37
      4     28     29     39     38
      4     30     31     41     40
      4     31     32     42     41
      4     32     33     43     42
      4     33     34     44     43
      4     34     35     45     44
      4     35     36     46     45
      4     36     37     47     46
      4     37     38     48     47
      4     38     39     49     48
      4     40     41     51     50
      4     41     42     52     51
      4     42     43     53     52
      4     43     44     54     53
      4     44     45     55     54
      4     45     46     56     55
      4     46     47     57     56
      4     47     48     58     57
      4     48     49     59     58
      4     50     51     61     60
      4     51     52     62     61
      4     52     53     63     62
      4     53     54     64     63
      4     54     55     65     64
      4     55     56     66     65
      4     56     57     67     66
      4     57     58     68     67
      4     58     59     69     68
      4     60     61     71     70
      4     61     62     72     71
      4     62     63     73     72
      4     63     64     74     73
      4     64     65     75     74
      4     65     66     76     75
      4     66     67     77     76
      4     67     68     78     77
      4     68     69     79     78
      4     70     71     81     80
      4     71     72     82     81
      4     72     73     83     82
      4     73     74     84     83
      4     74     75     85     84
      4     75     76     86     85
      4     76     77     87     86
      4     77     78     88     87
      4     78     79     89     88
      4     80     81     91     90
      4     81     82     92     91
      4     82     83     93     92
      4     83     84     94     93
      4     84     85     95     94
      4     85     86     96     95
      4     86     87     97     96
      4     87     88     98     97
      4     88     89     99     98
      4     90     91    101    100
      4     91     92    102    101
      4     92     93    103    102
      4     93     94    104    103
      4     94     95    105    104
      4     95     96    106    105
      4     96     97    107    106
      4     97     98    108    107
      4     98     99    109    108
      4    100    101    111    110
      4    101    102    112    111
      4    102    103    113    112
      4    103    104    114    113
      4    104    105    115    114
      4    105    106    116    115
      4    106    107    117    116
      4    107    108    118    117
      4    108    109    119    118
      4    110    111    121    120
      4    111    112    122    121
      4    112    113    123    122
      4    113    114    124    123
      4    114    115    125    124
      4    115    116    126    125
      4    116    117    127    126
      4    117    118    128    127
      4    118    119    129    128
      4    120    121    131    130
      4    121    122    132    131
      4    122    123    133    132
      4    123    124    134    133
      4    124    125    135    134
      4    125    126    136    135
      4    126    127    137    136
      4    127    128    138    137
      4    128    129    139    138
      4    130    131    141    140
      4    131    132    142    141
      4    132    133    143    142
      4    133    134    144    143
      4    134    135    145    144
      4    135    136    146    145
      4    136    137    147    146
      4    137    138    148    147
      4    138    139    149    148
      4    140    141    151    150
      4    141    142    152    151
      4    142    143    153    152
      4    143    144    154    153
      4    144    145    155    154
      4    145    146    156    155
      4    146    147    157    156
      4    147    148    158    157
      4    148    149    159    158
      4    150    151    161    160
      4    151    152    162    161
      4    152    153    163    162
      4    153    154    164    163
      4    154    155    165    164
      4    155    156    166    165
      4    156    157    167    166
      4    157    158    168    167
      4    158    159    169    168
      4    160    161    171    170
      4    161    162    172    171
      4    162    163    173    172
      4    163    164    174    173
      4    164    165    175    174
      4    165    166    176    175
      4    166    167    177    176
      4    167    168    178    177
      4    168    169    179    178
      4    170    171    181    180
      4    171    172    182    181
      4    172    173    183    182
      4    173    174    184    183
      4    174    175    185    184
      4    175    176    186    185
      4    176    177    187    186
      4    177    178    188    187
      4    178    179    189    188
      4    180    181    191    190
      4    181    182    192    191
      4    182    183    193    192
      4    183    184    194    193
      4    184    185    195    194
      4    185    186    196    195
      4    186    187    197    196
      4    187    188    198    197
      4    188    189    199    198
  
CELL_DATA 171
SCALARS Gamma double
LOOKUP_TABLE default
  0.10462946E+003
  0.47042683E+002
  0.19700607E+002
  0.15750973E+002
  0.33020767E+002
  0.28730511E+002
  0.20955286E+002
  0.29019679E+002
  0.34819224E+002
  0.10462946E+003
  0.47042683E+002
  0.19700607E+002
  0.15750973E+002
  0.33020767E+002
  0.28730511E+002
  0.20955286E+002
  0.29019679E+002
  0.34819224E+002
  0.10633772E+003
  0.48251395E+002
  0.19389485E+002
  0.17378730E+002
  0.35923587E+002
  0.31130226E+002
  0.22339111E+002
  0.31191795E+002
  0.37451714E+002
  0.10803232E+003
  0.49368156E+002
  0.19173718E+002
  0.19184389E+002
  0.38855487E+002
  0.33590084E+002
  0.23805856E+002
  0.33415121E+002
  0.40088579E+002
  0.10970619E+003
  0.50424130E+002
  0.19104853E+002
  0.21197282E+002
  0.41840007E+002
  0.36112826E+002
  0.25374825E+002
  0.35722205E+002
  0.42739685E+002
  0.11112772E+003
  0.51398107E+002
  0.19179802E+002
  0.23452183E+002
  0.44919203E+002
  0.38693043E+002
  0.27024695E+002
  0.38104920E+002
  0.45401503E+002
  0.11244064E+003
  0.52404588E+002
  0.19556516E+002
  0.25948359E+002
  0.48011656E+002
  0.41314340E+002
  0.28826573E+002
  0.40632908E+002
  0.48082909E+002
  0.11372478E+003
  0.53426427E+002
  0.20225088E+002
  0.28672640E+002
  0.51117529E+002
  0.43943908E+002
  0.30757073E+002
  0.43294595E+002
  0.50780150E+002
  0.11487674E+003
  0.54509432E+002
  0.21238922E+002
  0.31578756E+002
  0.54134381E+002
  0.46517198E+002
  0.32831361E+002
  0.46126820E+002
  0.53508508E+002
  0.11550391E+003
  0.55599070E+002
  0.22622397E+002
  0.34596947E+002
  0.56909105E+002
  0.48939084E+002
  0.35019932E+002
  0.49063237E+002
  0.56174020E+002
  0.11260791E+003
  0.55118972E+002
  0.23710119E+002
  0.36574781E+002
  0.57627379E+002
  0.49673087E+002
  0.36249274E+002
  0.50634756E+002
  0.57102687E+002
  0.10000560E+003
  0.49889924E+002
  0.22951288E+002
  0.35053800E+002
  0.52787068E+002
  0.45703218E+002
  0.34215870E+002
  0.47591404E+002
  0.52785673E+002
  0.80240252E+002
  0.41003710E+002
  0.20324579E+002
  0.30230284E+002
  0.43423174E+002
  0.37859980E+002
  0.29248693E+002
  0.40490246E+002
  0.44129981E+002
  0.57999852E+002
  0.30493256E+002
  0.16374694E+002
  0.23384678E+002
  0.31974723E+002
  0.28167340E+002
  0.22576558E+002
  0.31041105E+002
  0.33225043E+002
  0.35761694E+002
  0.19421458E+002
  0.11297451E+002
  0.15331624E+002
  0.19929530E+002
  0.17800053E+002
  0.14857698E+002
  0.20276385E+002
  0.21328000E+002
  0.15959946E+002
  0.89899100E+001
  0.56573961E+001
  0.72274289E+001
  0.89183685E+001
  0.81136264E+001
  0.70842443E+001
  0.95628548E+001
  0.98835952E+001
  0.32256505E+001
  0.18979344E+001
  0.12865983E+001
  0.15436262E+001
  0.18072758E+001
  0.16817938E+001
  0.15339126E+001
  0.20388992E+001
  0.20787311E+001
  0.37831218E-001
  0.23374740E-001
  0.16846978E-001
  0.18749696E-001
  0.20843277E-001
  0.19884976E-001
  0.19074689E-001
  0.25027292E-001
  0.25240302E-001
  0.00000000E+000
  0.00000000E+000
  0.00000000E+000
  0.00000000E+000
  0.00000000E+000
  0.00000000E+000
  0.00000000E+000
  0.00000000E+000
  0.00000000E+000
POINT_DATA 200
VECTORS Uconv double
  0.00000000E+000  0.00000000E+000  0.00000000E+000
  0.00000000E+000  0.00000000E+000  0.00000000E+000
  0.00000000E+000  0.00000000E+000  0.00000000E+000
  0.00000000E+000  0.00000000E+000  0.00000000E+000
  0.00000000E+000  0.00000000E+000  0.00000000E+000
  0.00000000E+000  0.00000000E+000  0.00000000E+000
  0.00000000E+000  0.00000000E+000  0.00000000E+000
  0.00000000E+000  0.00000000E+000  0.00000000E+000
  0.00000000E+000  0.00000000E+000  0.00000000E+000
  0.00000000E+000  0.00000000E+000  0.00000000E+000
  0.00000000E+000  0.00000000E+000  0.00000000E+000
  0.00000000E+000  0.00000000E+000  0.00000000E+000
  0.00000000E+000  0.00000000E+000  0.00000000E+000
  0.00000000E+000  0.00000000E+000  0.00000000E+000
  0.00000000E+000  0.00000000E+000  0.00000000E+000
  0.00000000E+000  0.00000000E+000  0.00000000E+000
  0.00000000E+000  0.00000000E+000  0.00000000E+000
  0.00000000E+000  0.00000000E+000  0.00000000E+000
  0.00000000E+000  0.00000000E+000  0.00000000E+000
  0.00000000E+000  0.00000000E+000  0.00000000E+000
  0.17379105E+002  0.46829982E+000 -0.12532966E+001
  0.16962778E+002 -0.57131662E+000 -0.15908814E+001
  0.17077470E+002 -0.27664901E+000 -0.33619781E+000
  0.17128156E+002 -0.95150422E-001 -0.88100184E-002
  0.17058692E+002 -0.31305114E+000  0.35869372E-002
  0.17027384E+002 -0.42446526E+000  0.80772454E-001
  0.17066771E+002 -0.29674872E+000  0.14476218E+000
  0.17061782E+002 -0.31450856E+000  0.32414639E+000
  0.17031719E+002 -0.39850152E+000  0.37086484E+000
  0.17056735E+002  0.89581611E-001  0.67163484E+000
  0.17395530E+002  0.51365445E+000 -0.16532891E+001
  0.16966627E+002 -0.56704949E+000 -0.16088382E+001
  0.17070852E+002 -0.29696166E+000 -0.35803365E+000
  0.17117111E+002 -0.14030725E+000 -0.30971508E-001
  0.17028058E+002 -0.43021184E+000 -0.18910409E-001
  0.16984711E+002 -0.58220277E+000  0.11026305E+000
  0.17045341E+002 -0.37511153E+000  0.19162553E+000
  0.17048324E+002 -0.34993291E+000  0.35949889E+000
  0.17026198E+002 -0.40513874E+000  0.38742700E+000
  0.17042721E+002  0.59760496E-001  0.66926984E+000
  0.17726846E+002  0.98874021E+000 -0.16547569E+001
  0.16972388E+002 -0.55761195E+000 -0.15837618E+001
  0.17064571E+002 -0.31584385E+000 -0.38325881E+000
  0.17102720E+002 -0.19462239E+000 -0.58780106E-001
  0.16990063E+002 -0.56785624E+000 -0.39908574E-001
  0.16937576E+002 -0.74770197E+000  0.14359139E+000
  0.17019494E+002 -0.46503590E+000  0.24589083E+000
  0.17035225E+002 -0.38711330E+000  0.40235714E+000
  0.17021884E+002 -0.40764133E+000  0.39070182E+000
  0.17047982E+002  0.67197689E-001  0.65481340E+000
  0.17113340E+002  0.38111869E-001 -0.58232343E+000
  0.16993153E+002 -0.51558325E+000 -0.15932058E+001
  0.17058747E+002 -0.33304518E+000 -0.40704250E+000
  0.17084988E+002 -0.25649258E+000 -0.94568292E-001
  0.16946526E+002 -0.71640203E+000 -0.65613813E-001
  0.16883020E+002 -0.92826935E+000  0.18126835E+000
  0.16989823E+002 -0.56285643E+000  0.31060956E+000
  0.17022301E+002 -0.42283344E+000  0.44378326E+000
  0.17019770E+002 -0.40763425E+000  0.41860491E+000
  0.17052658E+002  0.47843016E-001  0.67033152E+000
  0.17117976E+002  0.48475718E-001 -0.58001803E+000
  0.17006919E+002 -0.49776264E+000 -0.16431705E+001
  0.17036422E+002 -0.41641784E+000 -0.47526439E+000
  0.17045717E+002 -0.39741384E+000 -0.20960318E+000
  0.16891573E+002 -0.88659126E+000 -0.91535198E-001
  0.16823605E+002 -0.11131477E+001  0.22125878E+000
  0.16958661E+002 -0.66096939E+000  0.37209078E+000
  0.16988612E+002 -0.53875961E+000  0.56694275E+000
  0.17019080E+002 -0.40375282E+000  0.42776486E+000
  0.17054035E+002  0.49074879E-001  0.65466054E+000
  0.17122996E+002  0.60925229E-001 -0.57840756E+000
  0.17034114E+002 -0.45076519E+000 -0.16371525E+001
  0.17035064E+002 -0.41917634E+000 -0.47529388E+000
  0.17026205E+002 -0.45551493E+000 -0.24142586E+000
  0.16840949E+002 -0.10384094E+001 -0.12609707E+000
  0.16732918E+002 -0.14190481E+001  0.26255371E+000
  0.16906375E+002 -0.83596598E+000  0.51589225E+000
  0.16979451E+002 -0.55831884E+000  0.59009241E+000
  0.17021164E+002 -0.39418192E+000  0.43989330E+000
  0.17065753E+002  0.69568644E-001  0.62999543E+000
  0.17127891E+002  0.73302229E-001 -0.57833920E+000
  0.17056571E+002 -0.42147401E+000 -0.16928727E+001
  0.17036871E+002 -0.41385377E+000 -0.46930343E+000
  0.16991875E+002 -0.56664055E+000 -0.30064625E+000
  0.16778770E+002 -0.12293838E+001 -0.18259651E+000
  0.16662880E+002 -0.16291373E+001  0.34732369E+000
  0.16854160E+002 -0.10075369E+001  0.61030745E+000
  0.16975767E+002 -0.56481330E+000  0.60439837E+000
  0.17025436E+002 -0.38095557E+000  0.44914532E+000
  0.17069386E+002  0.75401267E-001  0.62259728E+000
  0.17133386E+002  0.86625814E-001 -0.57795267E+000
  0.17080090E+002 -0.39273015E+000 -0.16319820E+001
  0.17051483E+002 -0.37796419E+000 -0.42456988E+000
  0.16983657E+002 -0.58587400E+000 -0.31076407E+000
  0.16729689E+002 -0.13738068E+001 -0.19213520E+000
  0.16644832E+002 -0.16550170E+001  0.35348037E+000
  0.16848390E+002 -0.10136418E+001  0.61521967E+000
  0.16977600E+002 -0.55792962E+000  0.59804012E+000
  0.17032552E+002 -0.36298345E+000  0.45389300E+000
  0.17073999E+002  0.82707211E-001  0.61135671E+000
  0.17134379E+002  0.88744327E-001 -0.55661973E+000
  0.17097628E+002 -0.37278172E+000 -0.15680391E+001
  0.17061672E+002 -0.35315173E+000 -0.39504082E+000
  0.16984999E+002 -0.58151424E+000 -0.30708496E+000
  0.16732440E+002 -0.13532933E+001 -0.19681158E+000
  0.16654380E+002 -0.16074986E+001  0.34375209E+000
  0.16857578E+002 -0.97927023E+000  0.59396499E+000
  0.16986803E+002 -0.53377489E+000  0.56585598E+000
  0.17042204E+002 -0.34071675E+000  0.45828462E+000
  0.17078448E+002  0.89835599E-001  0.60169078E+000
  0.16993600E+002 -0.34264833E-001 -0.15118548E+001
  0.17113604E+002 -0.34240434E+000 -0.13779103E+001
  0.17076470E+002 -0.31815288E+000 -0.35316678E+000
  0.16999402E+002 -0.54641745E+000 -0.28529881E+000
  0.16768499E+002 -0.12458789E+001 -0.18824889E+000
  0.16702346E+002 -0.14598734E+001  0.31321606E+000
  0.16886937E+002 -0.89718188E+000  0.53846153E+000
  0.17002435E+002 -0.49489153E+000  0.52172167E+000
  0.17054252E+002 -0.31428728E+000  0.44294462E+000
  0.17082687E+002  0.96643479E-001  0.59231920E+000
  0.17179338E+002  0.24095226E+000 -0.14457942E+001
  0.17127888E+002 -0.30596560E+000 -0.11357047E+001
  0.17095345E+002 -0.27503218E+000 -0.31894776E+000
  0.17028751E+002 -0.47785275E+000 -0.24088481E+000
  0.16841283E+002 -0.10456604E+001 -0.16162779E+000
  0.16788365E+002 -0.12142512E+001  0.26208374E+000
  0.16936432E+002 -0.76912931E+000  0.45517975E+000
  0.17024831E+002 -0.44147526E+000  0.46286248E+000
  0.17070556E+002 -0.28623270E+000  0.42257199E+000
  0.17088111E+002  0.10525907E+000  0.58318150E+000
  0.17130402E+002  0.16593099E+000 -0.12972065E+001
  0.17132584E+002 -0.28208765E+000 -0.92271879E+000
  0.17118211E+002 -0.22318384E+000 -0.26083783E+000
  0.17071436E+002 -0.37968675E+000 -0.18092307E+000
  0.16942622E+002 -0.78022671E+000 -0.11491797E+000
  0.16900505E+002 -0.91100167E+000  0.19333408E+000
  0.17002327E+002 -0.60399795E+000  0.34939469E+000
  0.17053142E+002 -0.37580743E+000  0.38667207E+000
  0.17085965E+002 -0.25472306E+000  0.38770511E+000
  0.17093241E+002  0.11322956E+000  0.57450455E+000
  0.17081608E+002  0.91940131E-001 -0.11679368E+001
  0.17138713E+002 -0.24023755E+000 -0.63631963E+000
  0.17144342E+002 -0.16614073E+000 -0.18792732E+000
  0.17123991E+002 -0.26190272E+000 -0.10836599E+000
  0.17056689E+002 -0.48759414E+000 -0.66318579E-001
  0.17028968E+002 -0.56853733E+000  0.11761211E+000
  0.17077930E+002 -0.41924389E+000  0.22958414E+000
  0.17085378E+002 -0.30216430E+000  0.30097658E+000
  0.17102035E+002 -0.22099586E+000  0.35201017E+000
  0.17107838E+002  0.13948791E+000  0.56506118E+000
  0.17084478E+002  0.96952088E-001 -0.10936406E+001
  0.17143766E+002 -0.20364712E+000 -0.39331151E+000
  0.17171757E+002 -0.10756133E+000 -0.11397789E+000
  0.17175541E+002 -0.14932679E+000 -0.37204109E-001
  0.17164037E+002 -0.22342422E+000 -0.20591078E-001
  0.17152188E+002 -0.25121567E+000  0.42872477E-001
  0.17155222E+002 -0.23519665E+000  0.10538825E+000
  0.17119976E+002 -0.22494003E+000  0.21073698E+000
  0.17118887E+002 -0.18683204E+000  0.28335343E+000
  0.17112009E+002  0.14546420E+000  0.55543897E+000
  0.17108908E+002  0.14965583E+000 -0.17903694E+001
  0.17154970E+002 -0.15554657E+000 -0.18993315E+000
  0.17198978E+002 -0.51390779E-001 -0.56094043E-001
  0.17229005E+002 -0.34419454E-001  0.36583475E-001
  0.17258868E+002 -0.25414670E-002  0.31069635E-001
  0.17258825E+002  0.43244329E-002 -0.22083675E-001
  0.17226043E+002 -0.72997937E-001 -0.27086287E-002
  0.17153514E+002 -0.15213785E+000  0.13432471E+000
  0.17135826E+002 -0.15237435E+000  0.21546820E+000
  0.17115995E+002  0.15110838E+000  0.54652896E+000
  0.17099096E+002  0.14515187E+000 -0.17475386E+001
  0.17166328E+002 -0.11411097E+000  0.11502765E+000
  0.17225316E+002  0.10195173E-002  0.11009519E-001
  0.17274115E+002  0.59194547E-001  0.96132430E-001
  0.17333664E+002  0.16054765E+000  0.65869833E-001
  0.17340415E+002  0.18420872E+000 -0.68606884E-001
  0.17284842E+002  0.55265427E-001 -0.90740748E-001
  0.17187048E+002 -0.82386222E-001  0.50811398E-001
  0.17152583E+002 -0.11964248E+000  0.14985806E+000
  0.17120026E+002  0.15679429E+000  0.53795509E+000
  0.16988187E+002  0.36929223E-001 -0.22284680E+001
  0.17184899E+002 -0.68448616E-001  0.12368596E+000
  0.17248505E+002  0.45729608E-001  0.68580750E-001
  0.17312929E+002  0.13333329E+000  0.14747381E+000
  0.17383000E+002  0.25932934E+000  0.87420336E-001
  0.17394521E+002  0.29147563E+000 -0.97134572E-001
  0.17328469E+002  0.14564369E+000 -0.15646367E+000
  0.17216926E+002 -0.21741288E-001 -0.22397652E-001
  0.17168468E+002 -0.88444833E-001  0.89652260E-001
  0.17123883E+002  0.16220087E+000  0.52973612E+000
  0.17043316E+002  0.13458656E+000 -0.21718580E+001
  0.17204267E+002 -0.28679253E-001  0.15811689E+000
  0.17267991E+002  0.82105272E-001  0.11571272E+000
  0.17333519E+002  0.17261785E+000  0.17198348E+000
  0.17408779E+002  0.30531772E+000  0.96894701E-001