# vtk DataFile Version 2.0
BldPointCP.BldB
ASCII
 
DATASET POLYDATA
POINTS 9 double
  0.53716071E+001  0.10127176E+002  0.10635281E+003
  0.13163510E+002  0.24824984E+002  0.94569039E+002
  0.19382158E+002  0.36551846E+002  0.82329728E+002
  0.23592298E+002  0.44491421E+002  0.70075370E+002
  0.24952912E+002  0.47057561E+002  0.58091876E+002
  0.23591782E+002  0.44490473E+002  0.46108417E+002
  0.19381422E+002  0.36550674E+002  0.33853957E+002
  0.13162851E+002  0.24823841E+002  0.21613698E+002
  0.53694737E+001  0.10126231E+002  0.98294175E+001
  
POINT_DATA 9
SCALARS Gamma_LL double
LOOKUP_TABLE default
  0.37831218E-001
  0.23374740E-001
  0.16846978E-001
  0.18749696E-001
  0.20843277E-001
  0.19884976E-001
  0.19074689E-001
  0.25027292E-001
  0.25240302E-001
VECTORS Vind_CP double
 -0.32458750E-004 -0.15407357E-004 -0.75156121E-004
 -0.18972255E-004 -0.28776985E-004 -0.40635386E-004
 -0.12155559E-004 -0.22347188E-004 -0.15534514E-004
 -0.23272506E-004 -0.51472452E-004 -0.17665043E-004
 -0.34572927E-004 -0.78467463E-004 -0.14517532E-006
 -0.26271564E-004 -0.58079609E-004  0.21010319E-004
 -0.16957220E-004 -0.34070712E-004  0.25274126E-004
 -0.25342073E-004 -0.44524857E-004  0.50825222E-004
 -0.28921118E-004 -0.18128992E-004  0.50204612E-004
VECTORS Vtot_CP double
  0.35163470E+002 -0.98084061E+001  0.28199137E+000
  0.61653311E+002 -0.24359395E+002  0.23776021E-001
  0.82550121E+002 -0.36035679E+002 -0.39650475E+000
  0.96858907E+002 -0.43541792E+002 -0.25547550E+000
  0.10155161E+003 -0.45858000E+002 -0.30815843E-001
  0.96937666E+002 -0.43420674E+002  0.17599757E+000
  0.82668675E+002 -0.35822553E+002  0.31075346E+000
  0.61755233E+002 -0.24174240E+002  0.56363738E-002
  0.35443534E+002 -0.97051694E+001 -0.19393939E+000
VECTORS Vstr_CP double
 -0.17963502E+002  0.98083907E+001 -0.28206652E+000
 -0.44453330E+002  0.24359366E+002 -0.23816656E-001
 -0.65350133E+002  0.36035656E+002  0.39648922E+000
 -0.79658930E+002  0.43541741E+002  0.25545784E+000
 -0.84351648E+002  0.45857922E+002  0.30815698E-001
 -0.79737692E+002  0.43420616E+002 -0.17597656E+000
 -0.65468692E+002  0.35822518E+002 -0.31072818E+000
 -0.44555258E+002  0.24174195E+002 -0.55855486E-002
 -0.18243563E+002  0.97051512E+001  0.19398960E+000
VECTORS Vwnd_CP double
  0.17200000E+002  0.00000000E+000  0.00000000E+000
  0.17200000E+002  0.00000000E+000  0.00000000E+000
  0.17200000E+002  0.00000000E+000  0.00000000E+000
  0.17200000E+002  0.00000000E+000  0.00000000E+000
  0.17200000E+002  0.00000000E+000  0.00000000E+000
  0.17200000E+002  0.00000000E+000  0.00000000E+000
  0.17200000E+002  0.00000000E+000  0.00000000E+000
  0.17200000E+002  0.00000000E+000  0.00000000E+000
  0.17200000E+002  0.00000000E+000  0.00000000E+000
VECTORS Tangent double
  0.73022941E+000 -0.68320202E+000  0.77678219E-004
  0.88334778E+000 -0.46871812E+000  0.12028753E-003
  0.88354524E+000 -0.46834580E+000  0.12303465E-003
  0.88355125E+000 -0.46833448E+000  0.47768027E-004
  0.88356247E+000 -0.46831332E+000 -0.29681992E-004
  0.88365641E+000 -0.46813603E+000 -0.11281504E-003
  0.88357042E+000 -0.46829831E+000 -0.49384032E-004
  0.88345686E+000 -0.46851252E+000  0.12527130E-004
  0.88347030E+000 -0.46848715E+000  0.15632902E-003
VECTORS Normal double
  0.35887410E+000  0.38367351E+000  0.85088426E+000
  0.30218665E+000  0.56969813E+000  0.76428219E+000
  0.33244973E+000  0.62735915E+000  0.70420003E+000
  0.41960359E+000  0.79166173E+000  0.44407717E+000
  0.46831332E+000  0.88356247E+000 -0.71038879E-004
  0.41939382E+000  0.79175734E+000 -0.44410486E+000
  0.33246364E+000  0.62735612E+000 -0.70419616E+000
  0.30217132E+000  0.56977293E+000 -0.76423249E+000
  0.23992190E+000  0.45215664E+000 -0.85906452E+000
VECTORS Orth double
  0.58135565E+000  0.62131283E+000 -0.52535319E+000
  0.35830144E+000  0.67509063E+000 -0.64488194E+000
  0.32988631E+000  0.62215168E+000 -0.71000162E+000
  0.20801447E+000  0.39234490E+000 -0.89598854E+000
 -0.59494347E-004 -0.48866815E-004 -0.10000000E+001
 -0.20799081E+000 -0.39238879E+000 -0.89597481E+000
 -0.32980485E+000 -0.62219048E+000 -0.71000547E+000
 -0.35804535E+000 -0.67517022E+000 -0.64494085E+000
 -0.40239000E+000 -0.75899550E+000 -0.51186729E+000
