# vtk DataFile Version 2.0
BldPointCP.BldA
ASCII
 
DATASET POLYDATA
POINTS 9 double
 -0.10849552E+002 -0.30509906E+001  0.10652756E+003
 -0.26988092E+002 -0.75943390E+001  0.94934585E+002
 -0.39689843E+002 -0.11247393E+002  0.82661360E+002
 -0.48181273E+002 -0.13737723E+002  0.70315326E+002
 -0.50936954E+002 -0.14561943E+002  0.58314713E+002
 -0.48187161E+002 -0.13764551E+002  0.46318681E+002
 -0.39683433E+002 -0.11258053E+002  0.33971098E+002
 -0.27036916E+002 -0.75953553E+001  0.21626880E+002
 -0.11038462E+002 -0.30876083E+001  0.98269784E+001
  
POINT_DATA 9
SCALARS Gamma_LL double
LOOKUP_TABLE default
 -0.44759924E+001
 -0.15906434E+003
 -0.14393031E+003
 -0.11214943E+003
 -0.95053052E+002
 -0.87378484E+002
 -0.10317547E+003
 -0.14113658E+003
 -0.62870055E+002
VECTORS Vind_CP double
  0.10620732E+000 -0.27550963E+000  0.10626451E+000
 -0.57377033E+000  0.21072747E-001  0.56033439E+000
 -0.82705777E+000 -0.35279334E-001  0.58133971E+000
 -0.10425445E+001 -0.11635096E+000  0.33276524E+000
 -0.10277165E+001 -0.17203261E+000  0.23771030E-001
 -0.87496532E+000 -0.11099429E+000 -0.21542505E+000
 -0.64737196E+000 -0.40013320E-001 -0.41389970E+000
 -0.56796750E+000 -0.25212288E-001 -0.53143425E+000
 -0.19646920E+000 -0.51149732E-002 -0.74390167E-001
VECTORS Vtot_CP double
  0.93918002E+001  0.19486110E+002 -0.15407595E+001
  0.17428491E+001  0.49952244E+002 -0.33657016E+001
 -0.56559809E+001  0.74033048E+002 -0.36619802E+001
 -0.12291869E+002  0.90332577E+002 -0.29409405E+001
 -0.14672579E+002  0.95778824E+002 -0.28115001E+001
 -0.12429816E+002  0.90364641E+002 -0.27456006E+001
 -0.59958948E+001  0.73770255E+002 -0.19605154E+001
  0.22451705E+001  0.49711521E+002 -0.96507124E+000
  0.11364942E+002  0.20148934E+002 -0.93263944E-001
VECTORS Vstr_CP double
  0.79144071E+001 -0.19761620E+002  0.16470240E+001
  0.14883381E+002 -0.49931171E+002  0.39260360E+001
  0.22028923E+002 -0.74068328E+002  0.42433199E+001
  0.28449325E+002 -0.90448928E+002  0.32737058E+001
  0.30844862E+002 -0.95950856E+002  0.28352711E+001
  0.28754850E+002 -0.90475635E+002  0.25301756E+001
  0.22548523E+002 -0.73810268E+002  0.15466157E+001
  0.14386862E+002 -0.49736734E+002  0.43363700E+000
  0.56385889E+001 -0.20154049E+002  0.18873777E-001
VECTORS Vwnd_CP double
  0.17200000E+002  0.00000000E+000  0.00000000E+000
  0.17200000E+002  0.00000000E+000  0.00000000E+000
  0.17200000E+002  0.00000000E+000  0.00000000E+000
  0.17200000E+002  0.00000000E+000  0.00000000E+000
  0.17200000E+002  0.00000000E+000  0.00000000E+000
  0.17200000E+002  0.00000000E+000  0.00000000E+000
  0.17200000E+002  0.00000000E+000  0.00000000E+000
  0.17200000E+002  0.00000000E+000  0.00000000E+000
  0.17200000E+002  0.00000000E+000  0.00000000E+000
VECTORS Tangent double
 -0.87685281E+000  0.48061886E+000 -0.11604254E-001
 -0.27507134E+000  0.96142360E+000 -0.65154711E-003
 -0.27147557E+000  0.96244244E+000 -0.23596899E-002
 -0.25782069E+000  0.96618330E+000 -0.42813678E-002
 -0.25216349E+000  0.96768465E+000  0.31542382E-004
 -0.25320166E+000  0.96741125E+000  0.20978040E-002
 -0.25745800E+000  0.96628841E+000  0.14461959E-002
 -0.26211527E+000  0.96503587E+000  0.11653011E-002
 -0.26508083E+000  0.96422587E+000  0.79139354E-003
VECTORS Normal double
 -0.31075268E+000 -0.54819728E+000  0.77647441E+000
 -0.61477180E+000 -0.17537024E+000  0.76896093E+000
 -0.69363613E+000 -0.19395268E+000  0.69372277E+000
 -0.86893506E+000 -0.22992845E+000  0.43827477E+000
 -0.96768356E+000 -0.25216325E+000  0.14928742E-002
 -0.86933284E+000 -0.22657903E+000 -0.43922929E+000
 -0.69610277E+000 -0.18443126E+000 -0.69384872E+000
 -0.62438791E+000 -0.16867026E+000 -0.76268610E+000
 -0.49358420E+000 -0.13498889E+000 -0.85915810E+000
VECTORS Orth double
 -0.36682682E+000 -0.68445983E+000 -0.63004193E+000
 -0.73918292E+000 -0.21191967E+000 -0.63929544E+000
 -0.66721057E+000 -0.18996555E+000 -0.72023826E+000
 -0.42246935E+000 -0.11671654E+000 -0.89883085E+000
 -0.14525852E-002 -0.34592531E-003 -0.99999889E+000
  0.42444003E+000  0.11303727E+000 -0.89837255E+000
  0.67019125E+000  0.17964361E+000 -0.72011934E+000
  0.73582289E+000  0.20063927E+000 -0.64676778E+000
  0.82831563E+000  0.22813696E+000 -0.51170962E+000
