<?xml version="1.0"?>
<VTKFile type="PolyData" version="0.1" byte_order="LittleEndian">
  <PolyData>
    <Piece NumberOfPoints="    165" NumberOfVerts="  0" NumberOfLines="      0"
           NumberOfStrips="  0" NumberOfPolys="      0">
      <Points>
        <DataArray type="Float32" NumberOfComponents="3" format="ascii">
                       0.25262                       0.05400                     113.18095
                      -6.52991                      -1.70533                     109.59351
                     -12.85185                      -3.34827                     106.00948
                     -18.70724                      -4.87564                     102.41823
                     -20.37281                      -5.31148                     101.33944
                     -24.09202                      -6.28744                      98.81406
                     -28.99265                      -7.57843                      95.17782
                     -33.40412                      -8.74702                      91.50805
                     -37.32660                      -9.79315                      87.81147
                     -40.76660                     -10.71776                      84.10089
                     -43.73421                     -11.52215                      80.38929
                     -46.23997                     -12.20730                      76.68591
                     -48.29056                     -12.77296                      72.99361
                     -49.88838                     -13.21775                      69.31087
                     -51.03338                     -13.53965                      65.63454
                     -51.72293                     -13.73615                      61.96116
                     -51.95370                     -13.80503                      58.28848
                     -51.72458                     -13.74517                      54.61554
                     -51.03641                     -13.55653                      50.94151
                     -49.89228                     -13.24029                      47.26447
                     -48.29483                     -12.79824                      43.58131
                     -46.24448                     -12.23211                      39.88905
                     -43.73926                     -11.54346                      36.18609
                     -40.77311                     -10.73324                      32.47476
                     -37.33745                      -9.80190                      28.76204
                     -33.42537                      -8.75030                      25.05623
                     -29.03315                      -7.57968                      21.36440
                     -24.16253                      -6.29170                      17.68747
                     -20.47211                      -5.32146                      15.11854
                     -18.82046                      -4.88893                      14.01759
                     -13.01235                      -3.37394                      10.34659
                      -6.73885                      -1.74519                       6.67368
                       0.00017                       0.00004                       3.00019
                       0.25262                       0.05400                     113.18095
                       2.06824                       6.75127                     109.46193
                       3.75138                      12.97944                     105.73361
                       5.31209                      18.75240                     102.02383
                       5.75756                      20.39784                     100.91807
                       6.75894                      24.09170                      98.36330
                       8.09271                      29.00575                      94.75714
                       9.30766                      33.47264                      91.16650
                      10.39823                      37.47010                      87.56055
                      11.35913                      40.97909                      83.92119
                      12.18700                      43.98980                      80.24669
                      12.88126                      46.50382                      76.54789
                      13.44367                      48.53131                      72.83976
                      13.87704                      50.08556                      69.13451
                      14.18416                      51.17940                      65.43895
                      14.36738                      51.82339                      61.75437
                      14.42814                      52.02445                      58.07763
                      14.36671                      51.78481                      54.40322
                      14.18229                      51.10254                      50.72563
                      13.87324                      49.97250                      47.04115
                      13.43757                      48.38817                      43.34882
                      12.87295                      46.34174                      39.65110
                      12.17674                      43.82399                      35.95465
                      11.34667                      40.82701                      32.26882
                      10.38175                      37.34714                      28.60193
                       9.28279                      33.38704                      24.95679
                       8.05253                      28.95626                      21.32603
                       6.69453                      24.06728                      17.69400
                       5.66945                      20.37792                      15.14155
                       5.21154                      18.72987                      14.04406
                       3.60299                      12.94213                      10.37555
                       1.86692                       6.70060                       6.69135
                       0.00017                       0.00004                       3.00019
                       0.25262                       0.05400                     113.18095
                       5.08713                      -4.92464                     109.46298
                       9.57739                      -9.55723                     105.73445
                      13.73810                     -13.85098                     102.02237
                      14.92409                     -15.07446                     100.91540
                      17.58654                     -17.82033                      98.35675
                      21.12858                     -21.47280                      94.74474
                      24.35107                     -24.79327                      91.15102
                      27.24050                     -27.76554                      87.54660
                      29.78433                     -30.37499                      83.91280
                      31.97470                     -32.61276                      80.24548
                      33.80999                     -34.47768                      76.55228
                      35.29433                     -35.97557                      72.84656
                      36.43526                     -37.11647                      69.14099
                      37.24106                     -37.91182                      65.44392
                      37.71917                     -38.37247                      61.75802
                      37.87465                     -38.50659                      58.08074
                      37.70879                     -38.31801                      54.40633
                      37.21949                     -37.80628                      50.72871
                      36.40157                     -36.96690                      47.04409
                      35.24863                     -35.79312                      43.35241
                      33.75410                     -34.27731                      39.65767
                      31.91209                     -32.41207                      35.96736
                      29.71979                     -30.19282                      32.28922
                      27.17816                     -27.61891                      28.62778
                      24.29142                     -24.69324                      24.98239
                      21.06666                     -21.42192                      21.34488
                      17.51073                     -17.81135                      17.70334
                      14.82665                     -15.08413                      15.14661
                      13.62727                     -13.86477                      14.04870
                       9.41505                      -9.58023                      10.38139
                       4.87382                      -4.95897                       6.69745
                       0.00017                       0.00004                       3.00019
                      -0.09736                      -0.02497                      15.12069
                      -2.04851                      -0.52907                      15.12087
                      -4.09621                      -1.05923                      15.12151
                      -6.14367                      -1.59030                      15.12229
                      -8.19093                      -2.12216                      15.12293
                     -10.23801                      -2.65465                      15.12324
                     -12.28495                      -3.18763                      15.12309
                     -14.33179                      -3.72095                      15.12245
                     -16.37857                      -4.25446                      15.12132
                     -18.42533                      -4.78801                      15.11992
                     -20.47211                      -5.32146                      15.11854
                       0.02629                       0.09631                      15.12069
                       0.56617                       2.03788                      15.12786
                       1.13297                       4.07576                      15.13509
                       1.69986                       6.11361                      15.14155
                       2.26684                       8.15143                      15.14685
                       2.83388                      10.18923                      15.15066
                       3.40097                      12.22701                      15.15275
                       3.96809                      14.26477                      15.15297
                       4.53522                      16.30251                      15.15124
                       5.10235                      18.34022                      15.14744
                       5.66945                      20.37792                      15.14155
                       0.06950                      -0.07141                      15.12069
                       1.48126                      -1.50939                      15.12829
                       2.96339                      -3.01841                      15.13593
                       4.44581                      -4.52715                      15.14278
                       5.92847                      -6.03565                      15.14846
                       7.41131                      -7.54396                      15.15268
                       8.89430                      -9.05212                      15.15520
                      10.37737                     -10.56017                      15.15590
                      11.86049                     -12.06816                      15.15472
                      13.34360                     -13.57613                      15.15161
                      14.82665                     -15.08413                      15.14661
                      -0.00091                      -0.01083                     101.06359
                      -1.95168                      -0.51625                     101.07407
                      -3.99902                      -1.04748                     101.09181
                      -6.04616                      -1.57935                     101.11520
                      -8.09310                      -2.11177                     101.14303
                     -10.13989                      -2.64461                     101.17413
                     -12.18656                      -3.17778                     101.20739
                     -14.23314                      -3.71116                     101.24171
                     -16.27968                      -4.24464                     101.27598
                     -18.32622                      -4.77812                     101.30898
                     -20.37281                      -5.31148                     101.33944
                       0.12274                       0.11046                     101.06359
                       0.66135                       2.05270                     101.04704
                       1.22703                       4.09122                     101.02906
                       1.79302                       6.12965                     101.01075
                       2.35925                       8.16801                     100.99252
                       2.92565                      10.20632                     100.97483
                       3.49215                      12.24460                     100.95824
                       4.05867                      14.28287                     100.94340
                       4.62514                      16.32116                     100.93108
                       5.19146                      18.35947                     100.92226
                       5.75756                      20.39784                     100.91807
                       0.16595                      -0.05727                     101.06359
                       1.57889                      -1.49459                     101.04771
                       3.06195                      -3.00324                     101.03036
                       4.54500                      -4.51188                     101.01253
                       6.02802                      -6.02055                     100.99454
                       7.51099                      -7.52926                     100.97684
                       8.99389                      -9.03804                     100.95992
                      10.47668                     -10.54691                     100.94446
                      11.95934                     -12.05592                     100.93121
                      13.44182                     -13.56508                     100.92114
                      14.92409                     -15.07446                     100.91540
        </DataArray>
      </Points>
      <PointData>
        <DataArray type="Float32" Name="TranslationalVelocity" NumberOfComponents="3" format="ascii">
                       3.08714                       0.74760                      -0.00926
                       5.85607                     -11.66718                       0.83970
                       8.32628                     -23.30582                       1.81064
                      10.56287                     -34.16969                       2.77679
                      11.19086                     -37.27899                       3.06109
                      12.59661                     -44.25477                       3.67939
                      14.53162                     -53.49077                       4.34313
                      16.47594                     -61.84093                       4.65960
                      18.50939                     -69.28983                       4.60436
                      20.62875                     -75.84602                       4.26543
                      22.74174                     -81.53591                       3.79942
                      24.70746                     -86.38876                       3.35751
                      26.39768                     -90.41743                       3.02760
                      27.73098                     -93.61267                       2.82816
                      28.67615                     -95.94835                       2.73274
                      29.23574                     -97.38873                       2.70010
                      29.42146                     -97.90155                       2.69381
                      29.24425                     -97.46883                       2.68554
                      28.71302                     -96.08839                       2.65215
                      27.83661                     -93.77432                       2.57269
                      26.62387                     -90.55059                       2.42635
                      25.09206                     -86.44427                       2.19637
                      23.27476                     -81.48052                       1.87938
                      21.21824                     -75.67636                       1.49099
                      18.97552                     -69.04099                       1.06758
                      16.59804                     -61.58196                       0.66236
                      14.12223                     -53.30460                       0.33083
                      11.55935                     -44.21479                       0.11072
                       9.71206                     -37.37456                       0.03435
                       8.90661                     -34.32804                       0.01979
                       6.12171                     -23.67169                       0.00038
                       3.16094                     -12.23728                       0.00115
                      -0.00053                      -0.00035                       0.00031
                       3.08714                       0.74760                      -0.00926
                      -9.48197                       3.90853                      -0.45483
                     -21.26051                       6.79773                      -0.94772
                     -32.18671                       9.55388                      -1.25576
                     -35.29411                      10.36824                      -1.29557
                     -42.24247                      12.28708                      -1.24662
                     -51.44366                      15.04450                      -0.89483
                     -59.76789                      17.73588                      -0.36669
                     -67.19377                      20.23716                       0.15705
                     -73.71486                      22.39274                       0.51227
                     -79.33746                      24.07528                       0.62453
                     -84.07161                      25.24061                       0.52867
                     -87.92501                      25.92881                       0.32018
                     -90.90128                      26.23030                       0.09721
                     -93.00079                      26.25861                      -0.07059
                     -94.22525                      26.11937                      -0.15720
                     -94.58009                      25.88614                      -0.17660
                     -94.07291                      25.59481                      -0.16637
                     -92.71312                      25.24479                      -0.16971
                     -90.51009                      24.80833                      -0.22079
                     -87.47416                      24.23646                      -0.33395
                     -83.61557                      23.46194                      -0.49480
                     -78.94102                      22.41020                      -0.65885
                     -73.45383                      21.01700                      -0.76121
                     -67.15402                      19.25118                      -0.74232
                     -60.03704                      17.13482                      -0.58797
                     -52.09783                      14.73484                      -0.34867
                     -43.33364                      12.12848                      -0.11660
                     -36.70653                      10.21549                      -0.01260
                     -33.74141                       9.37677                       0.01080
                     -23.31938                       6.46219                       0.04296
                     -12.07304                       3.34533                       0.02785
                      -0.00053                      -0.00035                       0.00031
                       3.08714                       0.74760                      -0.00926
                      11.65730                       9.51029                      -0.60640
                      19.52492                      17.64463                      -1.24520
                      26.84172                      25.10168                      -1.67422
                      28.94703                      27.20185                      -1.74070
                      33.75411                      31.82857                      -1.71092
                      40.32054                      37.77805                      -1.29879
                      46.44745                      43.00900                      -0.65137
                      52.02196                      47.60913                       0.01051
                      56.90997                      51.69607                       0.48672
                      60.99944                      55.38119                       0.67302
                      64.24032                      58.72791                       0.58732
                      66.65787                      61.73318                       0.33380
                      68.33357                      64.33802                       0.03916
                      69.37677                      66.44579                      -0.19594
                      69.89489                      67.94749                      -0.32465
                      69.96382                      68.74979                      -0.35792
                      69.61270                      68.79021                      -0.34595
                      68.82457                      68.04256                      -0.35087
                      67.54070                      66.51857                      -0.41942
                      65.67653                      64.26196                      -0.56209
                      63.13989                      61.33583                      -0.74473
                      59.85327                      57.80400                      -0.89830
                      55.78083                      53.71131                      -0.95016
                      50.93504                      49.07587                      -0.85614
                      45.36985                      43.88896                      -0.62446
                      39.16735                      38.12056                      -0.32663
                      32.40318                      31.73684                      -0.06375
                      27.36012                      26.88871                       0.05054
                      25.12285                      24.71612                       0.07864
                      17.30613                      17.08156                       0.12641
                       8.93558                       8.84505                       0.10000
                      -0.00053                      -0.00035                       0.00031
                       0.04067                      -0.17767                       0.00097
                       0.95259                      -3.70679                      -0.00043
                       1.91467                      -7.42223                      -0.00265
                       2.88112                     -11.14761                      -0.00510
                       3.85128                     -14.88139                      -0.00715
                       4.82446                     -18.62203                      -0.00810
                       5.79999                     -22.36799                      -0.00714
                       6.77719                     -26.11774                      -0.00342
                       7.75539                     -29.86975                       0.00401
                       8.73390                     -33.62253                       0.01623
                       9.71206                     -37.37456                       0.03435
                      -0.17779                       0.04504                       0.00097
                      -3.67961                       1.01942                       0.01692
                      -7.35352                       2.04192                       0.03282
                     -11.02589                       3.06419                       0.04650
                     -14.69693                       4.08628                       0.05664
                     -18.36683                       5.10818                       0.06207
                     -22.03581                       6.12993                       0.06173
                     -25.70406                       7.15152                       0.05469
                     -29.37181                       8.17296                       0.04017
                     -33.03922                       9.19429                       0.01782
                     -36.70653                      10.21549                      -0.01260
                       0.12431                       0.12288                       0.00097
                       2.72192                       2.67254                       0.02908
                       5.45170                       5.35306                       0.05674
                       8.18442                       8.03746                       0.08109
                      10.91966                      10.72515                       0.10074
                      13.65700                      13.41558                       0.11437
                      16.39602                      16.10816                       0.12074
                      19.13628                      18.80233                       0.11868
                      21.87735                      21.49752                       0.10709
                      24.61877                      24.19317                       0.08476
                      27.36012                      26.88871                       0.05054
                       1.46985                      -0.00747                       0.00026
                       2.38836                      -3.55483                       0.12569
                       3.35663                      -7.28574                       0.32514
                       4.32881                     -11.02322                       0.58193
                       5.30440                     -14.76617                       0.88407
                       6.28277                     -18.51350                       1.22007
                       7.26323                     -22.26416                       1.57910
                       8.24503                     -26.01708                       1.95117
                       9.22741                     -29.77123                       2.32724
                      10.20961                     -33.52556                       2.69940
                      11.19086                     -37.27899                       3.06109
                       1.25139                       0.21524                       0.00026
                      -2.26780                       1.19116                      -0.16124
                      -5.95336                       2.21382                      -0.33526
                      -9.63175                       3.23505                      -0.50814
                     -13.30433                       4.25516                      -0.67427
                     -16.97244                       5.27445                      -0.82856
                     -20.63745                       6.29323                      -0.96654
                     -24.30075                       7.31177                      -1.08454
                     -27.96369                       8.33031                      -1.17971
                     -31.62768                       9.34908                      -1.25032
                     -35.29411                      10.36824                      -1.29557
                       1.55349                       0.29308                       0.00026
                       4.16645                       2.86084                      -0.20282
                       6.91298                       5.56001                      -0.42131
                       9.66281                       8.26246                      -0.63981
                      12.41525                      10.96736                      -0.85288