# vtk DataFile Version 2.0

ASCII
 
DATASET POLYDATA
POINTS 80 double
  0.51777422E-001  0.93094828E-002  0.11318169E+003
  0.12148963E+002 -0.16588069E+002  0.10090605E+003
  0.20719888E+002 -0.28326485E+002  0.88713020E+002
  0.27906999E+002 -0.38134137E+002  0.76484659E+002
  0.31476645E+002 -0.43000200E+002  0.64220308E+002
  0.31472791E+002 -0.42988085E+002  0.51968366E+002
  0.27898589E+002 -0.38105891E+002  0.39713020E+002
  0.20716405E+002 -0.28300652E+002  0.27474259E+002
  0.12138531E+002 -0.16583947E+002  0.15258292E+002
  0.17734051E-003  0.42576087E-004  0.30001281E+001
 -0.17626134E+001 -0.41086975E+001  0.11317962E+003
  0.85958241E+001 -0.19204007E+002  0.10091140E+003
  0.18216187E+002 -0.30149142E+002  0.88715583E+002
  0.25921745E+002 -0.39579162E+002  0.76484095E+002
  0.29657710E+002 -0.44334366E+002  0.64220218E+002
  0.29619671E+002 -0.44349802E+002  0.51967636E+002
  0.25797638E+002 -0.39638052E+002  0.39712095E+002
  0.17950476E+002 -0.30321666E+002  0.27474645E+002
  0.85110233E+001 -0.19246876E+002  0.15258334E+002
 -0.36310961E+001 -0.26577221E+001  0.29883041E+001
 -0.16822213E+001 -0.40781735E+001  0.11317943E+003
  0.84109109E+001 -0.19352578E+002  0.10091331E+003
  0.17837024E+002 -0.30462697E+002  0.88711104E+002
  0.25366207E+002 -0.40025750E+002  0.76475271E+002
  0.29018666E+002 -0.44856520E+002  0.64218511E+002
  0.28980905E+002 -0.44875873E+002  0.51968884E+002
  0.25242641E+002 -0.40092070E+002  0.39717711E+002
  0.17567981E+002 -0.30636838E+002  0.27478868E+002
  0.83321742E+001 -0.19396056E+002  0.15257581E+002
 -0.35077022E+001 -0.25916095E+001  0.29900011E+001
 -0.15979519E+001 -0.40456545E+001  0.11317970E+003
  0.82279450E+001 -0.19493814E+002  0.10092326E+003
  0.17453424E+002 -0.30767552E+002  0.88707369E+002
  0.24804444E+002 -0.40461626E+002  0.76468270E+002
  0.28372282E+002 -0.45365709E+002  0.64217152E+002
  0.28334939E+002 -0.45387621E+002  0.51969346E+002
  0.24681377E+002 -0.40533152E+002  0.39721590E+002
  0.17180988E+002 -0.30942275E+002  0.27481438E+002
  0.81519574E+001 -0.19538482E+002  0.15253465E+002
 -0.33824227E+001 -0.25246994E+001  0.29921085E+001
 -0.15095456E+001 -0.40112841E+001  0.11318015E+003
  0.80442941E+001 -0.19629570E+002  0.10093106E+003
  0.17064963E+002 -0.31063322E+002  0.88704112E+002
  0.24236305E+002 -0.40886164E+002  0.76462925E+002
  0.27717293E+002 -0.45859348E+002  0.64215928E+002
  0.27680301E+002 -0.45882629E+002  0.51969386E+002
  0.24113519E+002 -0.40960759E+002  0.39724097E+002
  0.16789251E+002 -0.31237428E+002  0.27482947E+002
  0.79693158E+001 -0.19674979E+002  0.15249945E+002
 -0.32555108E+001 -0.24570909E+001  0.29943501E+001
 -0.14167123E+001 -0.39751854E+001  0.11318047E+003
  0.78581384E+001 -0.19760873E+002  0.10093961E+003
  0.16671258E+002 -0.31349465E+002  0.88701028E+002
  0.23661655E+002 -0.41298364E+002  0.76459019E+002
  0.27053475E+002 -0.46336166E+002  0.64214650E+002
  0.27016450E+002 -0.46359643E+002  0.51969406E+002
  0.23538600E+002 -0.41373861E+002  0.39725666E+002
  0.16392482E+002 -0.31521677E+002  0.27484023E+002
  0.77845108E+001 -0.19805584E+002  0.15245271E+002
 -0.31272957E+001 -0.23886641E+001  0.29962842E+001
 -0.13193731E+001 -0.39372600E+001  0.11318061E+003
  0.76723725E+001 -0.19885519E+002  0.10094394E+003
  0.16273346E+002 -0.31627235E+002  0.88698882E+002
  0.23081798E+002 -0.41699333E+002  0.76456879E+002
  0.26382373E+002 -0.46797915E+002  0.64213679E+002
  0.26344924E+002 -0.46820720E+002  0.51969464E+002
  0.22957792E+002 -0.41773801E+002  0.39726363E+002
  0.15991586E+002 -0.31796118E+002  0.27484605E+002
  0.75982144E+001 -0.19929785E+002  0.15242231E+002
 -0.29978151E+001 -0.23194821E+001  0.29974077E+001
 -0.12187136E+001 -0.38975477E+001  0.11318064E+003
  0.74854336E+001 -0.20004354E+002  0.10094395E+003
  0.15872447E+002 -0.31898209E+002  0.88698442E+002
  0.22498007E+002 -0.42091017E+002  0.76456564E+002
  0.25706154E+002 -0.47248197E+002  0.64213476E+002
  0.25668250E+002 -0.47270223E+002  0.51969365E+002
  0.22372751E+002 -0.42163481E+002  0.39726220E+002
  0.15587717E+002 -0.32062488E+002  0.27484486E+002
  0.74101961E+001 -0.20047734E+002  0.15241647E+002
 -0.28669883E+001 -0.22496431E+001  0.29977653E+001
  
POLYGONS 63 315
      4      0      1     11     10
      4      1      2     12     11
      4      2      3     13     12
      4      3      4     14     13
      4      4      5     15     14
      4      5      6     16     15
      4      6      7     17     16
      4      7      8     18     17
      4      8      9     19     18
      4     10     11     21     20
      4     11     12     22     21
      4     12     13     23     22
      4     13     14     24     23
      4     14     15     25     24
      4     15     16     26     25
      4     16     17     27     26
      4     17     18     28     27
      4     18     19     29     28
      4     20     21     31     30
      4     21     22     32     31
      4     22     23     33     32
      4     23     24     34     33
      4     24     25     35     34
      4     25     26     36     35
      4     26     27     37     36
      4     27     28     38     37
      4     28     29     39     38
      4     30     31     41     40
      4     31     32     42     41
      4     32     33     43     42
      4     33     34     44     43
      4     34     35     45     44
      4     35     36     46     45
      4     36     37     47     46
      4     37     38     48     47
      4     38     39     49     48
      4     40     41     51     50
      4     41     42     52     51
      4     42     43     53     52
      4     43     44     54     53
      4     44     45     55     54
      4     45     46     56     55
      4     46     47     57     56
      4     47     48     58     57
      4     48     49     59     58
      4     50     51     61     60
      4     51     52     62     61
      4     52     53     63     62
      4     53     54     64     63
      4     54     55     65     64
      4     55     56     66     65
      4     56     57     67     66
      4     57     58     68     67
      4     58     59     69     68
      4     60     61     71     70
      4     61     62     72     71
      4     62     63     73     72
      4     63     64     74     73
      4     64     65     75     74
      4     65     66     76     75
      4     66     67     77     76
      4     67     68     78     77
      4     68     69     79     78
  
CELL_DATA 63
SCALARS Gamma double
LOOKUP_TABLE default
  0.21751674E+002
  0.43748467E+002
  0.31092012E+002
  0.37702419E+002
  0.44954690E+002
  0.42522550E+002
  0.38757463E+002
  0.47116865E+002
  0.12995209E+002
  0.21751674E+002
  0.43748467E+002
  0.31092012E+002
  0.37702419E+002
  0.44954690E+002
  0.42522550E+002
  0.38757463E+002
  0.47116865E+002
  0.12995209E+002
  0.12940546E+002
  0.26383846E+002
  0.18957153E+002
  0.22682258E+002
  0.26751777E+002
  0.25299876E+002
  0.23305827E+002
  0.28582989E+002
  0.78166061E+001
  0.55517334E+001
  0.11524444E+002
  0.84253451E+001
  0.98669053E+001
  0.11443381E+002
  0.10857547E+002
  0.10153410E+002
  0.12534465E+002
  0.33987728E+001
  0.10796506E+001
  0.22864924E+001
  0.17123151E+001
  0.19508177E+001
  0.22107269E+001
  0.21117534E+001
  0.20087758E+001
  0.24850141E+001
  0.67029763E+000
  0.12168383E-001
  0.26361473E-001
  0.20268502E-001
  0.22122473E-001
  0.24323726E-001
  0.23479501E-001
  0.22930704E-001
  0.28397287E-001
  0.76470951E-002
  0.00000000E+000
  0.00000000E+000
  0.00000000E+000
  0.00000000E+000
  0.00000000E+000
  0.00000000E+000
  0.00000000E+000
  0.00000000E+000
  0.00000000E+000
POINT_DATA 80
VECTORS Uconv double
  0.00000000E+000  0.00000000E+000  0.00000000E+000
  0.00000000E+000  0.00000000E+000  0.00000000E+000
  0.00000000E+000  0.00000000E+000  0.00000000E+000
  0.00000000E+000  0.00000000E+000  0.00000000E+000
  0.00000000E+000  0.00000000E+000  0.00000000E+000
  0.00000000E+000  0.00000000E+000  0.00000000E+000
  0.00000000E+000  0.00000000E+000  0.00000000E+000
  0.00000000E+000  0.00000000E+000  0.00000000E+000
  0.00000000E+000  0.00000000E+000  0.00000000E+000
  0.00000000E+000  0.00000000E+000  0.00000000E+000
  0.00000000E+000  0.00000000E+000  0.00000000E+000
  0.00000000E+000  0.00000000E+000  0.00000000E+000
  0.00000000E+000  0.00000000E+000  0.00000000E+000
  0.00000000E+000  0.00000000E+000  0.00000000E+000
  0.00000000E+000  0.00000000E+000  0.00000000E+000
  0.00000000E+000  0.00000000E+000  0.00000000E+000
  0.00000000E+000  0.00000000E+000  0.00000000E+000
  0.00000000E+000  0.00000000E+000  0.00000000E+000
  0.00000000E+000  0.00000000E+000  0.00000000E+000
  0.00000000E+000  0.00000000E+000  0.00000000E+000
  0.17157494E+002 -0.29088587E-001 -0.14331021E+000
  0.17018220E+002 -0.61388348E-001 -0.66414124E+000
  0.17148637E+002  0.61840178E-001 -0.86124805E-001
  0.17112780E+002  0.11465687E+000 -0.82012623E-001
  0.17023856E+002  0.23070983E+000 -0.49129576E-001
  0.17015715E+002  0.24176907E+000  0.56896915E-001
  0.17100832E+002  0.14151865E+000  0.10219307E+000
  0.17136537E+002  0.83248909E-001  0.10718309E+000
  0.17132683E+002  0.13409995E-001  0.20577824E+000
  0.17069898E+002  0.28216657E-001 -0.15450560E+000
  0.17156653E+002 -0.28934705E-001 -0.14405077E+000
  0.17158518E+002  0.24963714E-001 -0.17575918E+000
  0.17163714E+002  0.42148481E-001 -0.58972986E-001
  0.17146883E+002  0.69000253E-001 -0.45221608E-001
  0.17096606E+002  0.13672257E+000 -0.26339016E-001
  0.17092353E+002  0.14346713E+000  0.31421446E-001
  0.17140907E+002  0.89171519E-001  0.58924940E-001
  0.17154309E+002  0.60252024E-001  0.75378791E-001
  0.17178149E+002  0.35726725E-001  0.72223658E-001
  0.17071779E+002  0.25690374E-001 -0.14895574E+000
  0.17155767E+002 -0.28779730E-001 -0.14476644E+000
  0.17163966E+002  0.18831261E-001 -0.14667117E+000
  0.17178705E+002  0.21768940E-001 -0.31310485E-001
  0.17182350E+002  0.19885442E-001 -0.64889857E-002
  0.17173470E+002  0.32860810E-001 -0.21740657E-002
  0.17172880E+002  0.35168482E-001  0.43105857E-002
  0.17182164E+002  0.33008956E-001  0.13534367E-001
  0.17171762E+002  0.36551892E-001  0.43327261E-001
  0.17182380E+002  0.30459244E-001  0.58671005E-001
  0.17073694E+002  0.23156817E-001 -0.14327098E+000
  0.17154833E+002 -0.28625901E-001 -0.14545096E+000
  0.17033976E+002 -0.75556768E-001  0.25813017E+000
  0.17193132E+002  0.12480991E-002 -0.38997845E-002
  0.17215720E+002 -0.28155340E-001  0.30884728E-001
  0.17242957E+002 -0.65847972E-001  0.20405637E-001
  0.17245349E+002 -0.67605949E-001 -0.21136762E-001
  0.17220603E+002 -0.21850905E-001 -0.30177969E-001
  0.17188420E+002  0.12809520E-001  0.11757890E-001
  0.17153733E+002  0.35087858E-002 -0.61527966E-001
  0.17075641E+002  0.20639599E-001 -0.13745520E+000
  0.17153850E+002 -0.28476097E-001 -0.14609303E+000
  0.17093288E+002 -0.43888900E-001  0.32018846E+000
  0.17206697E+002 -0.18765245E-001  0.22525108E-001
  0.17244244E+002 -0.70830952E-001  0.63943086E-001
  0.17296721E+002 -0.14674123E+000  0.39303875E-001
  0.17301262E+002 -0.15149834E+000 -0.42165438E-001
  0.17253174E+002 -0.70634809E-001 -0.68871547E-001
  0.17203899E+002 -0.10250660E-001 -0.18479069E-001
  0.17171558E+002  0.74893383E-002 -0.73008389E-001
  0.17077625E+002  0.18155742E-001 -0.13150318E+000
  0.17152831E+002 -0.28336999E-001 -0.14667426E+000
  0.17130970E+002 -0.26681434E-001  0.27149125E+000
  0.17219181E+002 -0.37668121E-001  0.47313271E-001
  0.17266390E+002 -0.10531357E+000  0.91888417E-001
  0.17331397E+002 -0.20201600E+000  0.52467923E-001
  0.17337368E+002 -0.20918783E+000 -0.57175707E-001
  0.17278270E+002 -0.11009288E+000 -0.10102301E+000
  0.17217946E+002 -0.31966712E-001 -0.46664252E-001
  0.17183239E+002  0.75870267E-002 -0.63462427E-001
  0.17079641E+002  0.15706200E-001 -0.12542137E+000
