<?xml version="1.0"?>
<VTKFile type="PolyData" version="0.1" byte_order="LittleEndian">
  <PolyData>
    <Piece NumberOfPoints="     10" NumberOfVerts="  0" NumberOfLines="      9"
           NumberOfStrips="  0" NumberOfPolys="      0">
      <Points>
        <DataArray type="Float32" NumberOfComponents="3" format="ascii">
                       0.19313                       0.03985                     113.18111
                       6.27089                      19.60973                     100.81863
                      10.63379                      33.54728                      88.72268
                      14.30968                      45.17628                      76.54030
                      16.09479                      50.81590                      64.21623
                      16.08716                      50.75103                      51.95451
                      14.28954                      45.05196                      39.66338
                      10.62046                      33.47916                      27.41782
                       6.21687                      19.58929                      15.26338
                       0.00018                       0.00004                       3.00018
        </DataArray>
      </Points>
      <PointData>
        <DataArray type="Float32" Name="TranslationalVelocity" NumberOfComponents="3" format="ascii">
                       2.85424                       0.66629                      -0.00767
                     -34.09581                      11.33661                      -1.35920
                     -59.94141                      20.77054                      -0.09591
                     -81.41474                      27.96486                       0.79401
                     -92.26483                      29.35689                      -0.08856
                     -92.09479                      28.53993                      -0.18101
                     -81.23959                      26.13920                      -0.69854
                     -60.13290                      19.80923                      -0.73623
                     -35.28489                      11.20300                       0.02862
                      -0.00051                      -0.00026                       0.00046
        </DataArray>
        <DataArray type="Float32" Name="RotationalVelocity" NumberOfComponents="3" format="ascii">
                      -0.02634                       0.09914                       1.81214
                       0.02746                       0.11295                       1.80112
                       0.16393                       0.00717                       1.83131
                      -0.10579                       0.01083                       1.87648
                      -0.16389                       0.02302                       1.86235
                       0.03759                      -0.03924                       1.81052
                       0.07789                      -0.05118                       1.79403
                      -0.06318                       0.01058                       1.79757
                      -0.02190                       0.00373                       1.79987
                       0.02405                       0.00503                       1.80172
        </DataArray>
        <DataArray type="Float32" Name="TranslationalAcceleration" NumberOfComponents="3" format="ascii">
                      15.03256                      -5.80291                      -0.35856
                      11.64902                      -2.94718                       1.66580
                       1.31618                     -13.86470                      -9.73226
                      -6.00211                      -3.16782                      -7.72234
                      -5.54650                       8.28911                      -0.57350
                      -2.94347                       3.90910                       0.50140
                      -1.37577                      -3.82269                       5.16327
                      -1.91353                      -7.47522                       4.32142
                       0.29925                       1.31748                      -1.53129
                       0.00070                       0.00076                      -0.05792
        </DataArray>
        <DataArray type="Float32" Name="OrientationX" NumberOfComponents="3" format="ascii">
                       0.73961                       0.67300                      -0.00694
                       0.31810                       0.94804                       0.00616
                       0.29983                       0.95399                      -0.00144
                       0.29208                       0.95638                      -0.00583
                       0.30349                       0.95283                       0.00135
                       0.30860                       0.95118                       0.00510
                       0.29789                       0.95460                      -0.00126
                       0.30005                       0.95392                      -0.00099
                       0.30489                       0.95239                       0.00097
                       0.30266                       0.95308                       0.00489
        </DataArray>
        <DataArray type="Float32" Name="OrientationY" NumberOfComponents="3" format="ascii">
                       0.67302                      -0.73961                       0.00299
                       0.94806                      -0.31810                      -0.00173
                       0.95399                      -0.29984                      -0.00198
                       0.95639                      -0.29209                      -0.00053
                       0.95283                      -0.30349                      -0.00002
                       0.95119                      -0.30860                      -0.00014
                       0.95460                      -0.29789                      -0.00027
                       0.95392                      -0.30005                       0.00004
                       0.95239                      -0.30489                       0.00011
                       0.95306                      -0.30269                       0.00735
        </DataArray>
        <DataArray type="Float32" Name="OrientationZ" NumberOfComponents="3" format="ascii">
                      -0.00312                      -0.00688                      -0.99997
                       0.00032                       0.00639                      -0.99998
                      -0.00232                      -0.00078                      -1.00000
                      -0.00221                      -0.00542                      -0.99998
                       0.00039                       0.00129                      -1.00000
                       0.00144                       0.00490                      -0.99999
                      -0.00064                      -0.00113                      -1.00000
                      -0.00026                      -0.00095                      -1.00000
                       0.00040                       0.00089                      -1.00000
                       0.00848                       0.00244                      -0.99996
        </DataArray>
      </PointData>
      <Lines>
        <DataArray type="Int32" Name="connectivity" format="ascii">
      0      1
      1      2
      2      3
      3      4
      4      5
      5      6
      6      7
      7      8
      8      9
        </DataArray>
        <DataArray type="Int32" Name="offsets" format="ascii">
      2
      4
      6
      8
     10
     12
     14
     16
     18
        </DataArray>
      </Lines>
    </Piece>
  </PolyData>
</VTKFile>
