# vtk DataFile Version 2.0
BldPointCP.BldA
ASCII
 
DATASET POLYDATA
POINTS 9 double
 -0.11284509E+002 -0.16442311E+001  0.10641304E+003
 -0.27779625E+002 -0.40626232E+001  0.94683689E+002
 -0.40881052E+002 -0.60046326E+001  0.82422115E+002
 -0.49727844E+002 -0.73285649E+001  0.70139869E+002
 -0.52595682E+002 -0.77627953E+001  0.58155267E+002
 -0.49733335E+002 -0.73404107E+001  0.46171362E+002
 -0.40886458E+002 -0.60157080E+001  0.33885971E+002
 -0.27796486E+002 -0.40681028E+001  0.21611309E+002
 -0.11341563E+002 -0.16555720E+001  0.98264444E+001
  
POINT_DATA 9
SCALARS Gamma_LL double
LOOKUP_TABLE default
 -0.46587266E+001
 -0.13835549E+003
 -0.12171970E+003
 -0.11050393E+003
 -0.10856606E+003
 -0.10380919E+003
 -0.10921629E+003
 -0.13273300E+003
 -0.66919081E+002
VECTORS Vind_CP double
  0.64324887E-001 -0.17997658E+000  0.79987616E-001
 -0.31940446E+000  0.38860391E-002  0.32966246E+000
 -0.36510508E+000 -0.16905406E-001  0.26247672E+000
 -0.50517115E+000 -0.39859474E-001  0.16794768E+000
 -0.60700212E+000 -0.54700860E-001  0.25666097E-002
 -0.47449890E+000 -0.43727801E-001 -0.14812284E+000
 -0.32521202E+000 -0.20942435E-001 -0.22574392E+000
 -0.33280691E+000 -0.15256351E-001 -0.32536890E+000
 -0.13042309E+000 -0.11579841E-001 -0.56485539E-001
VECTORS Vtot_CP double
  0.12845845E+002  0.20213487E+002 -0.12700729E+001
  0.88342196E+001  0.50855164E+002 -0.24698684E+001
  0.46518047E+001  0.75323427E+002 -0.22765800E+001
  0.11394776E+001  0.92094862E+002 -0.16598732E+001
  0.95398299E-003  0.97706554E+002 -0.16760406E+001
  0.12703511E+001  0.92280882E+002 -0.16320827E+001
  0.48953860E+001  0.75489600E+002 -0.95275886E+000
  0.93216652E+001  0.50928238E+002 -0.38735848E+000
  0.14065946E+002  0.20636085E+002 -0.50937419E-001
VECTORS Vstr_CP double
  0.44184801E+001 -0.20393463E+002  0.13500605E+001
  0.80463759E+001 -0.50851278E+002  0.27995309E+001
  0.12183090E+002 -0.75340332E+002  0.25390568E+001
  0.15555351E+002 -0.92134722E+002  0.18278209E+001
  0.16592044E+002 -0.97761255E+002  0.16786072E+001
  0.15455150E+002 -0.92324610E+002  0.14839599E+001
  0.11979402E+002 -0.75510542E+002  0.72701494E+000
  0.75455279E+001 -0.50943494E+002  0.61989578E-001
  0.30036308E+001 -0.20647665E+002 -0.55481201E-002
VECTORS Vwnd_CP double
  0.17200000E+002 -0.00000000E+000  0.00000000E+000
  0.17200000E+002 -0.00000000E+000  0.00000000E+000
  0.17200000E+002 -0.00000000E+000  0.00000000E+000
  0.17200000E+002 -0.00000000E+000  0.00000000E+000
  0.17200000E+002 -0.00000000E+000  0.00000000E+000
  0.17200000E+002 -0.00000000E+000  0.00000000E+000
  0.17200000E+002 -0.00000000E+000  0.00000000E+000
  0.17200000E+002 -0.00000000E+000  0.00000000E+000
  0.17200000E+002 -0.00000000E+000  0.00000000E+000
VECTORS Tangent double
 -0.80843503E+000  0.58857514E+000 -0.34799525E-002
 -0.14819975E+000  0.98895722E+000  0.66460379E-003
 -0.14782216E+000  0.98901378E+000  0.60201105E-003
 -0.14330741E+000  0.98967812E+000 -0.45599384E-003
 -0.14109205E+000  0.98999645E+000 -0.22895647E-003
 -0.14005745E+000  0.99014318E+000 -0.63378170E-003
 -0.14026000E+000  0.99011464E+000 -0.35252245E-003
 -0.14175922E+000  0.98990113E+000  0.25638794E-003
 -0.14303749E+000  0.98971725E+000  0.20354882E-003
VECTORS Normal double
 -0.38030413E+000 -0.51783447E+000  0.76630035E+000
 -0.63697150E+000 -0.95967110E-001  0.76489060E+000
 -0.70563348E+000 -0.10589341E+000  0.70061971E+000
 -0.88728727E+000 -0.12827688E+000  0.44301958E+000
 -0.98999638E+000 -0.14109193E+000  0.48116525E-003
 -0.88769161E+000 -0.12584900E+000 -0.44290589E+000
 -0.70659403E+000 -0.10034577E+000 -0.70046813E+000
 -0.63890083E+000 -0.91296231E-001 -0.76385256E+000
 -0.50645254E+000 -0.73017641E-001 -0.85917068E+000
VECTORS Orth double
 -0.44922329E+000 -0.62082749E+000 -0.64247308E+000
 -0.75650786E+000 -0.11293326E+000 -0.64415987E+000
 -0.69298629E+000 -0.10314232E+000 -0.71353463E+000
 -0.43838829E+000 -0.63892586E-001 -0.89651182E+000
 -0.44404798E-003 -0.29455467E-003 -0.99999986E+000
  0.43862001E+000  0.61469669E-001 -0.89656788E+000
  0.69357912E+000  0.97998571E-001 -0.71368360E+000
  0.75611510E+000  0.10844695E+000 -0.64539074E+000
  0.85032118E+000  0.12299671E+000 -0.51168907E+000
