<?xml version="1.0"?>
<VTKFile type="PolyData" version="0.1" byte_order="LittleEndian">
  <PolyData>
    <Piece NumberOfPoints="     10" NumberOfVerts="  0" NumberOfLines="      9"
           NumberOfStrips="  0" NumberOfPolys="      0">
      <Points>
        <DataArray type="Float32" NumberOfComponents="3" format="ascii">
                       0.04848                       0.08984                     101.06318
                       1.10678                       2.17591                     101.06299
                       2.16504                       4.26201                     101.06266
                       3.22325                       6.34814                     101.06201
                       4.28143                       8.43428                     101.06099
                       5.33972                      10.52057                     101.05977
                       6.39785                      12.60672                     101.05765
                       7.45585                      14.69293                     101.05536
                       8.51401                      16.77906                     101.05364
                       9.57215                      18.86517                     101.05255
        </DataArray>
      </Points>
      <PointData>
        <DataArray type="Float32" Name="TranslationalVelocity" NumberOfComponents="3" format="ascii">
                       0.09648                       0.13377                       0.00908
                      -3.66792                       2.05027                      -0.02804
                      -7.43542                       3.96857                      -0.07618
                     -11.20555                       5.88807                      -0.14197
                     -14.97782                       7.80850                      -0.22846
                     -18.74982                       9.73561                      -0.33593
                     -22.52519                      11.65714                      -0.45491
                     -26.30172                      13.57878                      -0.57330
                     -30.07895                      15.50085                      -0.67307
                     -33.85699                      17.42306                      -0.73052
        </DataArray>
        <DataArray type="Float32" Name="RotationalVelocity" NumberOfComponents="3" format="ascii">
                      -0.01259                       0.00818                       1.80459
                      -0.01386                       0.01074                       1.80607
                      -0.01784                       0.01467                       1.80739
                      -0.02365                       0.01944                       1.80850
                      -0.03014                       0.02451                       1.80941
                      -0.03959                       0.03287                       1.81076
                      -0.03967                       0.03476                       1.81125
                      -0.03482                       0.03425                       1.81167
                      -0.02203                       0.03012                       1.81204
                      -0.00189                       0.02245                       1.81241
        </DataArray>
        <DataArray type="Float32" Name="TranslationalAcceleration" NumberOfComponents="3" format="ascii">
                      10.11524                       0.85478                      -0.24214
                       9.66375                       0.32045                      -5.83418
                       9.45226                       0.04958                     -11.30872
                       9.31506                      -0.26147                     -15.82833
                       9.22914                      -0.60268                     -18.97662
                      12.58471                       5.51411                     -20.74018
                      12.50685                       5.15481                     -19.84504
                      12.38496                       4.80816                     -18.61983
                      12.19133                       4.43219                     -17.19011
                      11.91094                       4.06827                     -15.44310
        </DataArray>
        <DataArray type="Float32" Name="OrientationX" NumberOfComponents="3" format="ascii">
                       0.00011                       0.00043                       1.00000
                       0.00014                       0.00053                       1.00000
                       0.00018                       0.00062                       1.00000
                       0.00022                       0.00071                       1.00000
                       0.00025                       0.00078                       1.00000
                       0.00025                       0.00073                       1.00000
                       0.00017                       0.00056                       1.00000
                       0.00000                       0.00010                       1.00000
                      -0.00001                       0.00013                       1.00000
                      -0.00037                      -0.00051                       1.00000
        </DataArray>
        <DataArray type="Float32" Name="OrientationY" NumberOfComponents="3" format="ascii">
                       0.89183                      -0.45237                       0.00010
                       0.89183                      -0.45237                       0.00011
                       0.89183                      -0.45236                       0.00012
                       0.89184                      -0.45236                       0.00012
                       0.89184                      -0.45235                       0.00013
                       0.89186                      -0.45232                       0.00011
                       0.89187                      -0.45230                       0.00010
                       0.89174                      -0.45255                       0.00004
                       0.89175                      -0.45252                       0.00007
                       0.89116                      -0.45369                       0.00010
        </DataArray>
        <DataArray type="Float32" Name="OrientationZ" NumberOfComponents="3" format="ascii">
                       0.45237                       0.89183                      -0.00043
                       0.45237                       0.89183                      -0.00054
                       0.45236                       0.89183                      -0.00064
                       0.45236                       0.89184                      -0.00073
                       0.45235                       0.89184                      -0.00081
                       0.45232                       0.89185                      -0.00077
                       0.45230                       0.89187                      -0.00058
                       0.45255                       0.89174                      -0.00009
                       0.45252                       0.89175                      -0.00011
                       0.45369                       0.89116                       0.00062
        </DataArray>
      </PointData>
      <Lines>
        <DataArray type="Int32" Name="connectivity" format="ascii">
      0      1
      1      2
      2      3
      3      4
      4      5
      5      6
      6      7
      7      8
      8      9
        </DataArray>
        <DataArray type="Int32" Name="offsets" format="ascii">
      2
      4
      6
      8
     10
     12
     14
     16
     18
        </DataArray>
      </Lines>
    </Piece>
  </PolyData>
</VTKFile>
