<?xml version="1.0"?>
<VTKFile type="PolyData" version="0.1" byte_order="LittleEndian">
  <PolyData>
    <Piece NumberOfPoints="     10" NumberOfVerts="  0" NumberOfLines="      9"
           NumberOfStrips="  0" NumberOfPolys="      0">
      <Points>
        <DataArray type="Float32" NumberOfComponents="3" format="ascii">
                       0.19900                      -0.05128                     101.06358
                       1.89986                      -1.65747                     101.04107
                       3.60013                      -3.26433                     101.01701
                       5.30008                      -4.87151                     100.99215
                       6.99954                      -6.47920                     100.96703
                       8.69869                      -8.08804                     100.94460
                      10.39930                      -9.69451                     100.92323
                      12.09915                     -11.30179                     100.90443
                      13.79802                     -12.91010                     100.88809
                      15.49552                     -14.51985                     100.87961
        </DataArray>
      </Points>
      <PointData>
        <DataArray type="Float32" Name="TranslationalVelocity" NumberOfComponents="3" format="ascii">
                       1.74989                       0.30668                      -0.00134
                       4.67253                       3.40194                      -0.24222
                       7.60173                       6.50193                      -0.48921
                      10.53577                       9.60592                      -0.73550
                      13.47399                      12.71240                      -0.97448
                      16.42079                      15.82157                      -1.19895
                      19.36059                      18.93343                      -1.40239
                      22.30206                      22.04360                      -1.57987
                      25.24444                      25.15051                      -1.72603
                      28.18795                      28.25258                      -1.83558
        </DataArray>
        <DataArray type="Float32" Name="RotationalVelocity" NumberOfComponents="3" format="ascii">
                       0.07259                       0.06983                       1.81696
                       0.06683                       0.08037                       1.82021
                       0.05913                       0.08968                       1.82307
                       0.04978                       0.09723                       1.82537
                       0.03883                       0.10306                       1.82713
                       0.01245                       0.10990                       1.82900
                      -0.00281                       0.11106                       1.82912
                      -0.01933                       0.11083                       1.82871
                      -0.03713                       0.10911                       1.82777
                      -0.05606                       0.10610                       1.82631
        </DataArray>
        <DataArray type="Float32" Name="TranslationalAcceleration" NumberOfComponents="3" format="ascii">
                      10.11224                      -5.49624                      -0.06397
                       9.42190                      -4.59457                      -0.20437
                       8.99578                      -3.88301                      -0.35263
                       8.59033                      -3.14295                      -0.51461
                       8.20737                      -2.37523                      -0.71599
                      13.21191                      -6.14578                      -1.14606
                      12.88030                      -5.32199                      -1.69076
                      12.56208                      -4.48197                      -2.35041
                      12.27435                      -3.63420                      -3.19712
                      12.00347                      -2.78043                      -4.30561
        </DataArray>
        <DataArray type="Float32" Name="OrientationX" NumberOfComponents="3" format="ascii">
                       0.00551                      -0.00397                       0.99998
                       0.00617                      -0.00486                       0.99997
                       0.00677                      -0.00563                       0.99996
                       0.00730                      -0.00627                       0.99995
                       0.00774                      -0.00678                       0.99995
                       0.00831                      -0.00730                       0.99994
                       0.00838                      -0.00725                       0.99994
                       0.00831                      -0.00699                       0.99994
                       0.00406                      -0.00203                       0.99999
                      -0.00397                       0.01057                       0.99994
        </DataArray>
        <DataArray type="Float32" Name="OrientationY" NumberOfComponents="3" format="ascii">
                      -0.68251                      -0.73087                       0.00086
                      -0.68294                      -0.73047                       0.00067
                      -0.68353                      -0.72992                       0.00052
                      -0.68429                      -0.72921                       0.00042
                      -0.68526                      -0.72829                       0.00037
                      -0.68791                      -0.72579                       0.00042
                      -0.68971                      -0.72408                       0.00053
                      -0.69183                      -0.72206                       0.00070
                      -0.69447                      -0.71952                       0.00136
                      -0.67441                      -0.73834                       0.00513
        </DataArray>
        <DataArray type="Float32" Name="OrientationZ" NumberOfComponents="3" format="ascii">
                       0.73085                      -0.68250                      -0.00674
                       0.73045                      -0.68292                      -0.00783
                       0.72989                      -0.68350                      -0.00879
                       0.72917                      -0.68427                      -0.00961
                       0.72825                      -0.68523                      -0.01028
                       0.72575                      -0.68787                      -0.01105
                       0.72403                      -0.68968                      -0.01107
                       0.72201                      -0.69180                      -0.01084
                       0.71951                      -0.69447                      -0.00433
                       0.73835                      -0.67435                       0.01005
        </DataArray>
      </PointData>
      <Lines>
        <DataArray type="Int32" Name="connectivity" format="ascii">
      0      1
      1      2
      2      3
      3      4
      4      5
      5      6
      6      7
      7      8
      8      9
        </DataArray>
        <DataArray type="Int32" Name="offsets" format="ascii">
      2
      4
      6
      8
     10
     12
     14
     16
     18
        </DataArray>
      </Lines>
    </Piece>
  </PolyData>
</VTKFile>
