# vtk DataFile Version 2.0
BldPointCP.BldC
ASCII
 
DATASET POLYDATA
POINTS 9 double
  0.85350322E+001 -0.78421039E+001  0.10624881E+003
  0.20541274E+002 -0.19394866E+002  0.94472818E+002
  0.30224302E+002 -0.28651812E+002  0.82377445E+002
  0.36714762E+002 -0.34787049E+002  0.70126467E+002
  0.38739714E+002 -0.36631243E+002  0.58080441E+002
  0.36651002E+002 -0.34593645E+002  0.46059265E+002
  0.30147636E+002 -0.28461595E+002  0.33783341E+002
  0.20446825E+002 -0.19331581E+002  0.21591551E+002
  0.83249851E+001 -0.78778202E+001  0.98429223E+001
  
POINT_DATA 9
SCALARS Gamma_LL double
LOOKUP_TABLE default
  0.58804484E+002
  0.10679948E+003
  0.82254837E+002
  0.92570860E+002
  0.10345399E+003
  0.10455118E+003
  0.97897462E+002
  0.11123491E+003
  0.32379709E+002
VECTORS Vind_CP double
 -0.15453701E+000 -0.25878154E+000 -0.42589878E+000
 -0.18344860E+000  0.15469642E+000 -0.31199423E+000
 -0.27546966E+000  0.23891944E+000 -0.22453603E+000
 -0.61662769E+000  0.48932877E+000 -0.19670225E+000
 -0.88384598E+000  0.67374837E+000  0.20472191E-001
 -0.71895179E+000  0.57387539E+000  0.27716757E+000
 -0.37580627E+000  0.32211981E+000  0.32692140E+000
 -0.28175871E+000  0.22447039E+000  0.35006729E+000
 -0.96291340E-001 -0.42408006E-001  0.58300156E-001
VECTORS Vtot_CP double
  0.29780353E+000 -0.15919181E+002  0.58942395E+000
 -0.20002981E+002 -0.36468888E+002  0.10200419E+001
 -0.36998973E+002 -0.52681511E+002  0.17394507E-001
 -0.47931040E+002 -0.64388029E+002 -0.16731420E+000
 -0.50721658E+002 -0.69229582E+002  0.44416820E+000
 -0.46911944E+002 -0.66154285E+002  0.90371495E+000
 -0.35664011E+002 -0.54366210E+002  0.10472777E+001
 -0.18550228E+002 -0.36792283E+002  0.65811607E+000
  0.28033973E+001 -0.15147079E+002  0.34784065E-001
VECTORS Vstr_CP double
  0.16747659E+002  0.15660399E+002 -0.10153227E+001
  0.37019532E+002  0.36623584E+002 -0.13320361E+001
  0.53923503E+002  0.52920430E+002 -0.24193054E+000
  0.64514412E+002  0.64877358E+002 -0.29388051E-001
  0.67037812E+002  0.69903330E+002 -0.42369601E+000
  0.63392992E+002  0.66728160E+002 -0.62654738E+000
  0.52488205E+002  0.54688330E+002 -0.72035632E+000
  0.35468469E+002  0.37016754E+002 -0.30804878E+000
  0.14300311E+002  0.15104671E+002  0.23516091E-001
VECTORS Vwnd_CP double
  0.17200000E+002  0.00000000E+000  0.00000000E+000
  0.17200000E+002  0.00000000E+000  0.00000000E+000
  0.17200000E+002  0.00000000E+000  0.00000000E+000
  0.17200000E+002  0.00000000E+000  0.00000000E+000
  0.17200000E+002  0.00000000E+000  0.00000000E+000
  0.17200000E+002  0.00000000E+000  0.00000000E+000
  0.17200000E+002  0.00000000E+000  0.00000000E+000
  0.17200000E+002  0.00000000E+000  0.00000000E+000
  0.17200000E+002  0.00000000E+000  0.00000000E+000
VECTORS Tangent double
 -0.46483850E+000 -0.88539523E+000 -0.67639760E-003
 -0.68276934E+000 -0.73061059E+000  0.58468953E-002
 -0.69732963E+000 -0.71674089E+000  0.37272906E-002
 -0.69600533E+000 -0.71803617E+000 -0.80308304E-003
 -0.68911817E+000 -0.72464896E+000 -0.19298074E-003
 -0.69083629E+000 -0.72301081E+000  0.76270172E-003
 -0.69166596E+000 -0.72221713E+000  0.78482339E-003
 -0.68718964E+000 -0.72647794E+000  0.44665890E-003
 -0.68668925E+000 -0.72692813E+000 -0.57758548E-002
VECTORS Normal double
  0.47307107E+000 -0.24901114E+000  0.84510190E+000
  0.46793989E+000 -0.43112475E+000  0.77146854E+000
  0.50588275E+000 -0.48848486E+000  0.71096075E+000
  0.64852877E+000 -0.62910985E+000  0.42852215E+000
  0.72460924E+000 -0.68907756E+000 -0.10656298E-001
  0.65040651E+000 -0.62192297E+000 -0.43609999E+000
  0.51178506E+000 -0.49090174E+000 -0.70504719E+000
  0.46480190E+000 -0.44013752E+000 -0.76826959E+000
  0.37604474E+000 -0.34840680E+000 -0.85860530E+000
VECTORS Orth double
  0.74841762E+000 -0.39251592E+000 -0.53460483E+000
  0.56112235E+000 -0.52947106E+000 -0.63624060E+000
  0.50775392E+000 -0.49765957E+000 -0.70322181E+000
  0.30819963E+000 -0.29773288E+000 -0.90353092E+000
 -0.75890967E-002  0.74832844E-002 -0.99994320E+000
 -0.31577935E+000  0.30077763E+000 -0.89989789E+000
 -0.50958243E+000  0.48725548E+000 -0.70915996E+000
 -0.55832750E+000  0.52773929E+000 -0.64012627E+000
 -0.62213200E+000  0.59176701E+000 -0.51260470E+000
