# vtk DataFile Version 2.0

ASCII
 
DATASET POLYDATA
POINTS 60 double
  0.22148872E-001  0.38047705E-002  0.11318210E+003
  0.89696507E+001  0.18497659E+002  0.10092124E+003
  0.15302463E+002  0.31562062E+002  0.88708846E+002
  0.20605598E+002  0.42491987E+002  0.76469719E+002
  0.23247518E+002  0.47940967E+002  0.64216155E+002
  0.23244506E+002  0.47935692E+002  0.51967866E+002
  0.20600627E+002  0.42482140E+002  0.39717018E+002
  0.15299148E+002  0.31553347E+002  0.27474544E+002
  0.89668967E+001  0.18492992E+002  0.15252374E+002
  0.13959996E-003  0.30707559E-004  0.30000914E+001
  0.25487038E+001 -0.37199728E+001  0.11318317E+003
  0.12934838E+002  0.16562394E+002  0.10092132E+003
  0.18090137E+002  0.30213185E+002  0.88709781E+002
  0.22816447E+002  0.41423587E+002  0.76470180E+002
  0.25277244E+002  0.46956724E+002  0.64216259E+002
  0.25313470E+002  0.46931841E+002  0.51967520E+002
  0.22941944E+002  0.41350880E+002  0.39716353E+002
  0.18381914E+002  0.30059555E+002  0.27474753E+002
  0.13014738E+002  0.16527036E+002  0.15252565E+002
  0.40493702E+001 -0.19630536E+001  0.30057078E+001
  0.26424375E+001 -0.37668545E+001  0.11318287E+003
  0.13404154E+002  0.16329047E+002  0.10093001E+003
  0.18798949E+002  0.29869284E+002  0.88705688E+002
  0.23723711E+002  0.40990156E+002  0.76463689E+002
  0.26288670E+002  0.46487381E+002  0.64215331E+002
  0.26326512E+002  0.46465517E+002  0.51968539E+002
  0.23851043E+002  0.40921172E+002  0.39721067E+002
  0.19089659E+002  0.29715694E+002  0.27479148E+002
  0.13483350E+002  0.16290846E+002  0.15249350E+002
  0.41852248E+001 -0.20357933E+001  0.30033849E+001
  0.27382541E+001 -0.38121844E+001  0.11318283E+003
  0.13869308E+002  0.16089276E+002  0.10093641E+003
  0.19501671E+002  0.29518294E+002  0.88701638E+002
  0.24623761E+002  0.40546304E+002  0.76458885E+002
  0.27290080E+002  0.46001155E+002  0.64214167E+002
  0.27328628E+002  0.45980387E+002  0.51969403E+002
  0.24751488E+002  0.40477937E+002  0.39724704E+002
  0.19791065E+002  0.29362880E+002  0.27482486E+002
  0.13947382E+002  0.16048793E+002  0.15245845E+002
  0.43197616E+001 -0.21079407E+001  0.30014787E+001
  0.28369176E+001 -0.38556308E+001  0.11318282E+003
  0.14329504E+002  0.15843202E+002  0.10093959E+003
  0.20199126E+002  0.29161979E+002  0.88698742E+002
  0.25517522E+002  0.40093645E+002  0.76456067E+002
  0.28282390E+002  0.45500587E+002  0.64213090E+002
  0.28320803E+002  0.45479443E+002  0.51970001E+002
  0.25644320E+002  0.40023610E+002  0.39726956E+002
  0.20486528E+002  0.29002608E+002  0.27484504E+002
  0.14406417E+002  0.15800847E+002  0.15243340E+002
  0.44530194E+001 -0.21793731E+001  0.30003643E+001
  0.29379877E+001 -0.38970799E+001  0.11318282E+003
  0.14784719E+002  0.15591734E+002  0.10094035E+003
  0.20892143E+002  0.28800869E+002  0.88697852E+002
  0.26406066E+002  0.39634049E+002  0.76455281E+002
  0.29267864E+002  0.44990221E+002  0.64212713E+002
  0.29305850E+002  0.44968296E+002  0.51970190E+002
  0.26531493E+002  0.39561654E+002  0.39727615E+002
  0.21176845E+002  0.28636489E+002  0.27485057E+002
  0.14860705E+002  0.15547852E+002  0.15242548E+002
  0.45850825E+001 -0.22499841E+001  0.30000580E+001
  
POLYGONS 45 225
      4      0      1     11     10
      4      1      2     12     11
      4      2      3     13     12
      4      3      4     14     13
      4      4      5     15     14
      4      5      6     16     15
      4      6      7     17     16
      4      7      8     18     17
      4      8      9     19     18
      4     10     11     21     20
      4     11     12     22     21
      4     12     13     23     22
      4     13     14     24     23
      4     14     15     25     24
      4     15     16     26     25
      4     16     17     27     26
      4     17     18     28     27
      4     18     19     29     28
      4     20     21     31     30
      4     21     22     32     31
      4     22     23     33     32
      4     23     24     34     33
      4     24     25     35     34
      4     25     26     36     35
      4     26     27     37     36
      4     27     28     38     37
      4     28     29     39     38
      4     30     31     41     40
      4     31     32     42     41
      4     32     33     43     42
      4     33     34     44     43
      4     34     35     45     44
      4     35     36     46     45
      4     36     37     47     46
      4     37     38     48     47
      4     38     39     49     48
      4     40     41     51     50
      4     41     42     52     51
      4     42     43     53     52
      4     43     44     54     53
      4     44     45     55     54
      4     45     46     56     55
      4     46     47     57     56
      4     47     48     58     57
      4     48     49     59     58
  
CELL_DATA 45
SCALARS Gamma double
LOOKUP_TABLE default
  0.15959946E+002
  0.89899100E+001
  0.56573961E+001
  0.72274289E+001
  0.89183685E+001
  0.81136264E+001
  0.70842443E+001
  0.95628548E+001
  0.98835952E+001
  0.15959946E+002
  0.89899100E+001
  0.56573961E+001
  0.72274289E+001
  0.89183685E+001
  0.81136264E+001
  0.70842443E+001
  0.95628548E+001
  0.98835952E+001
  0.32256505E+001
  0.18979344E+001
  0.12865983E+001
  0.15436262E+001
  0.18072758E+001
  0.16817938E+001
  0.15339126E+001
  0.20388992E+001
  0.20787311E+001
  0.37831218E-001
  0.23374740E-001
  0.16846978E-001
  0.18749696E-001
  0.20843277E-001
  0.19884976E-001
  0.19074689E-001
  0.25027292E-001
  0.25240302E-001
  0.00000000E+000
  0.00000000E+000
  0.00000000E+000
  0.00000000E+000
  0.00000000E+000
  0.00000000E+000
  0.00000000E+000
  0.00000000E+000
  0.00000000E+000
POINT_DATA 60
VECTORS Uconv double
  0.00000000E+000  0.00000000E+000  0.00000000E+000
  0.00000000E+000  0.00000000E+000  0.00000000E+000
  0.00000000E+000  0.00000000E+000  0.00000000E+000
  0.00000000E+000  0.00000000E+000  0.00000000E+000
  0.00000000E+000  0.00000000E+000  0.00000000E+000
  0.00000000E+000  0.00000000E+000  0.00000000E+000
  0.00000000E+000  0.00000000E+000  0.00000000E+000
  0.00000000E+000  0.00000000E+000  0.00000000E+000
  0.00000000E+000  0.00000000E+000  0.00000000E+000
  0.00000000E+000  0.00000000E+000  0.00000000E+000
  0.00000000E+000  0.00000000E+000  0.00000000E+000
  0.00000000E+000  0.00000000E+000  0.00000000E+000
  0.00000000E+000  0.00000000E+000  0.00000000E+000
  0.00000000E+000  0.00000000E+000  0.00000000E+000
  0.00000000E+000  0.00000000E+000  0.00000000E+000
  0.00000000E+000  0.00000000E+000  0.00000000E+000
  0.00000000E+000  0.00000000E+000  0.00000000E+000
  0.00000000E+000  0.00000000E+000  0.00000000E+000
  0.00000000E+000  0.00000000E+000  0.00000000E+000
  0.00000000E+000  0.00000000E+000  0.00000000E+000
  0.17198529E+002  0.26059102E-002 -0.87142531E-002
  0.17197557E+002 -0.44297393E-002 -0.16344040E-001
  0.17197534E+002 -0.44435990E-002 -0.54319226E-002
  0.17191728E+002 -0.16653536E-001 -0.96866629E-002
  0.17187832E+002 -0.24702600E-001 -0.75075891E-002
  0.17193696E+002 -0.12961293E-001  0.10907427E-002
  0.17197283E+002 -0.56808047E-002  0.41482193E-002
  0.17196584E+002 -0.60359315E-002  0.70204694E-002
  0.17196795E+002 -0.51685288E-002  0.10705334E-001
  0.17196371E+002  0.92022942E-003  0.66883233E-002
  0.17198618E+002  0.28665674E-002 -0.86580102E-002
  0.17198325E+002 -0.29108665E-002 -0.10994759E-001
  0.17198821E+002 -0.19598427E-002 -0.23735676E-002
  0.17193986E+002 -0.12283926E-001 -0.64128480E-002
  0.17192557E+002 -0.15245003E-001 -0.58379253E-002
  0.17196958E+002 -0.64569317E-002  0.10790198E-002
  0.17198243E+002 -0.38230589E-002  0.21040102E-002
  0.17198072E+002 -0.31735823E-002  0.35440713E-002
  0.17197552E+002 -0.37129519E-002  0.71159044E-002
  0.17196537E+002  0.11412616E-002  0.64311091E-002
  0.17198704E+002  0.31333260E-002 -0.85998532E-002
  0.17199073E+002 -0.15144611E-002 -0.59170606E-002
  0.17200139E+002  0.53879890E-003  0.71860317E-003
  0.17196831E+002 -0.68001077E-002 -0.25149817E-002
  0.17198123E+002 -0.43693510E-002 -0.34381510E-002
  0.17200364E+002  0.11956003E-003  0.10426349E-002
  0.17199265E+002 -0.18944993E-002 -0.55937789E-005
  0.17199595E+002 -0.31319308E-003  0.48368666E-004
  0.17198319E+002 -0.22779330E-002  0.36213360E-002
  0.17196701E+002  0.13606460E-002  0.61824118E-002
  0.17198786E+002  0.34049034E-002 -0.85392642E-002
  0.17199815E+002 -0.17149357E-003 -0.13028571E-002
  0.17201390E+002  0.28773063E-002  0.36288692E-002
  0.17199500E+002 -0.17090708E-002  0.10706298E-002
  0.17202724E+002  0.44095944E-002 -0.12351933E-002
  0.17202961E+002  0.49576714E-002  0.98840159E-003
  0.17200230E+002 -0.10875036E-003 -0.19378439E-002
  0.17201040E+002  0.23455862E-002 -0.32210622E-002
  0.17199078E+002 -0.90010373E-003  0.41224478E-003
  0.17196862E+002  0.15778648E-002  0.59417978E-002
