# vtk DataFile Version 2.0

ASCII
 
DATASET POLYDATA
POINTS 30 double
  0.84663596E-003  0.13956960E-003  0.11318284E+003
  0.10594678E+002 -0.17610208E+002  0.10093967E+003
  0.18066872E+002 -0.30030442E+002  0.88698482E+002
  0.24325238E+002 -0.40432527E+002  0.76455979E+002
  0.27454273E+002 -0.45633419E+002  0.64213128E+002
  0.27454308E+002 -0.45633489E+002  0.51970097E+002
  0.24325235E+002 -0.40432403E+002  0.39727348E+002
  0.18066859E+002 -0.30029988E+002  0.27484773E+002
  0.10594629E+002 -0.17610049E+002  0.15243236E+002
  0.15840999E-004  0.30469958E-005  0.30000098E+001
 -0.21786751E+001 -0.39368244E+001  0.11318286E+003
  0.68139750E+001 -0.19884904E+002  0.10093988E+003
  0.15413289E+002 -0.31627030E+002  0.88698642E+002
  0.22221228E+002 -0.41698415E+002  0.76456034E+002
  0.25521425E+002 -0.46796442E+002  0.64213152E+002
  0.25483920E+002 -0.46819194E+002  0.51970026E+002
  0.22097105E+002 -0.41772908E+002  0.39727260E+002
  0.15131577E+002 -0.31796052E+002  0.27484770E+002
  0.67386899E+001 -0.19929906E+002  0.15243237E+002
 -0.38559096E+001 -0.23198760E+001  0.29997237E+001
 -0.20780000E+001 -0.38971143E+001  0.11318291E+003
  0.66264790E+001 -0.20003986E+002  0.10094036E+003
  0.15012195E+002 -0.31897709E+002  0.88697816E+002
  0.21637073E+002 -0.42089536E+002  0.76455271E+002
  0.24844718E+002 -0.47245953E+002  0.64212725E+002
  0.24806734E+002 -0.47267883E+002  0.51970180E+002
  0.21511653E+002 -0.42161947E+002  0.39727634E+002
  0.14727489E+002 -0.32062084E+002  0.27485089E+002
  0.65504857E+001 -0.20047861E+002  0.15242543E+002
 -0.37251143E+001 -0.22500000E+001  0.29999979E+001
  
POLYGONS 18 90
      4      0      1     11     10
      4      1      2     12     11
      4      2      3     13     12
      4      3      4     14     13
      4      4      5     15     14
      4      5      6     16     15
      4      6      7     17     16
      4      7      8     18     17
      4      8      9     19     18
      4     10     11     21     20
      4     11     12     22     21
      4     12     13     23     22
      4     13     14     24     23
      4     14     15     25     24
      4     15     16     26     25
      4     16     17     27     26
      4     17     18     28     27
      4     18     19     29     28
  
CELL_DATA 18
SCALARS Gamma double
LOOKUP_TABLE default
  0.00000000E+000
  0.00000000E+000
  0.00000000E+000
  0.00000000E+000
  0.00000000E+000
  0.00000000E+000
  0.00000000E+000
  0.00000000E+000
  0.00000000E+000
  0.00000000E+000
  0.00000000E+000
  0.00000000E+000
  0.00000000E+000
  0.00000000E+000
  0.00000000E+000
  0.00000000E+000
  0.00000000E+000
  0.00000000E+000
POINT_DATA 30
VECTORS Uconv double
  0.00000000E+000  0.00000000E+000  0.00000000E+000
  0.00000000E+000  0.00000000E+000  0.00000000E+000
  0.00000000E+000  0.00000000E+000  0.00000000E+000
  0.00000000E+000  0.00000000E+000  0.00000000E+000
  0.00000000E+000  0.00000000E+000  0.00000000E+000
  0.00000000E+000  0.00000000E+000  0.00000000E+000
  0.00000000E+000  0.00000000E+000  0.00000000E+000
  0.00000000E+000  0.00000000E+000  0.00000000E+000
  0.00000000E+000  0.00000000E+000  0.00000000E+000
  0.00000000E+000  0.00000000E+000  0.00000000E+000
  0.00000000E+000  0.00000000E+000  0.00000000E+000
  0.00000000E+000  0.00000000E+000  0.00000000E+000
  0.00000000E+000  0.00000000E+000  0.00000000E+000
  0.00000000E+000  0.00000000E+000  0.00000000E+000
  0.00000000E+000  0.00000000E+000  0.00000000E+000
  0.00000000E+000  0.00000000E+000  0.00000000E+000
  0.00000000E+000  0.00000000E+000  0.00000000E+000
  0.00000000E+000  0.00000000E+000  0.00000000E+000
  0.00000000E+000  0.00000000E+000  0.00000000E+000
  0.00000000E+000  0.00000000E+000  0.00000000E+000
  0.17200000E+002 -0.00000000E+000  0.00000000E+000
  0.17200000E+002 -0.00000000E+000  0.00000000E+000
  0.17200000E+002 -0.00000000E+000  0.00000000E+000
  0.17200000E+002 -0.00000000E+000  0.00000000E+000
  0.17200000E+002 -0.00000000E+000  0.00000000E+000
  0.17200000E+002 -0.00000000E+000  0.00000000E+000
  0.17200000E+002 -0.00000000E+000  0.00000000E+000
  0.17200000E+002 -0.00000000E+000  0.00000000E+000
  0.17200000E+002 -0.00000000E+000  0.00000000E+000
  0.17200000E+002 -0.00000000E+000  0.00000000E+000
