<?xml version="1.0"?>
<VTKFile type="PolyData" version="0.1" byte_order="LittleEndian">
  <PolyData>
    <Piece NumberOfPoints="     10" NumberOfVerts="  0" NumberOfLines="      9"
           NumberOfStrips="  0" NumberOfPolys="      0">
      <Points>
        <DataArray type="Float32" NumberOfComponents="3" format="ascii">
                      -0.09663                      -0.00474                     101.06318
                      -2.43221                      -0.13130                     101.06351
                      -4.76779                      -0.25786                     101.06410
                      -7.10336                      -0.38443                     101.06492
                      -9.43894                      -0.51099                     101.06593
                     -11.77451                      -0.63771                     101.06867
                     -14.11007                      -0.76417                     101.07030
                     -16.44561                      -0.89081                     101.07210
                     -18.78115                      -1.01743                     101.07380
                     -21.11669                      -1.14403                     101.07519
        </DataArray>
      </Points>
      <PointData>
        <DataArray type="Float32" Name="TranslationalVelocity" NumberOfComponents="3" format="ascii">
                       0.26683                      -0.12759                       0.00908
                       0.49546                      -4.34539                       0.04546
                       0.72434                      -8.56701                       0.11048
                       0.95349                     -12.79170                       0.20065
                       1.18287                     -17.01878                       0.31293
                       1.41348                     -21.24860                       0.44529
                       1.64334                     -25.47836                       0.59087
                       1.87373                     -29.70829                       0.74243
                       2.10416                     -33.93766                       0.88854
                       2.33468                     -38.16579                       1.01259
        </DataArray>
        <DataArray type="Float32" Name="RotationalVelocity" NumberOfComponents="3" format="ascii">
                      -0.01239                       0.00819                       1.80459
                      -0.01303                       0.01966                       1.80615
                      -0.01367                       0.03031                       1.80753
                      -0.01429                       0.03979                       1.80867
                      -0.01488                       0.04817                       1.80955
                      -0.01593                       0.06066                       1.81058
                      -0.01630                       0.06366                       1.81071
                      -0.01650                       0.06335                       1.81059
                      -0.01668                       0.05700                       1.81021
                      -0.01655                       0.04478                       1.80958
        </DataArray>
        <DataArray type="Float32" Name="TranslationalAcceleration" NumberOfComponents="3" format="ascii">
                      10.11524                       0.85478                      -0.24214
                      10.79299                       0.60627                       1.64713
                      11.14393                       0.24987                       4.91819
                      11.51683                      -0.17963                       9.15141
                      11.91641                      -0.68047                      13.97243
                       5.14941                      -2.31023                      23.98354
                       5.65516                      -3.02125                      28.80055
                       6.20885                      -3.79633                      33.46876
                       6.77482                      -4.61650                      37.68780
                       7.38313                      -5.48429                      41.27329
        </DataArray>
        <DataArray type="Float32" Name="OrientationX" NumberOfComponents="3" format="ascii">
                       0.00005                      -0.00003                       1.00000
                       0.00006                      -0.00003                       1.00000
                       0.00006                      -0.00003                       1.00000
                       0.00005                      -0.00003                       1.00000
                       0.00003                      -0.00003                       1.00000
                      -0.00009                      -0.00002                       1.00000
                      -0.00009                      -0.00005                       1.00000
                      -0.00021                      -0.00008                       1.00000
                      -0.00032                      -0.00010                       1.00000
                       0.00012                      -0.00034                       1.00000
        </DataArray>
        <DataArray type="Float32" Name="OrientationY" NumberOfComponents="3" format="ascii">
                      -0.05441                       0.99852                       0.00003
                      -0.05437                       0.99852                       0.00003
                      -0.05433                       0.99852                       0.00003
                      -0.05428                       0.99853                       0.00003
                      -0.05420                       0.99853                       0.00003
                      -0.05395                       0.99854                       0.00002
                      -0.05414                       0.99853                       0.00004
                      -0.05414                       0.99853                       0.00006
                      -0.05414                       0.99853                       0.00008
                      -0.05521                       0.99847                       0.00035
        </DataArray>
        <DataArray type="Float32" Name="OrientationZ" NumberOfComponents="3" format="ascii">
                      -0.99852                      -0.05441                       0.00005
                      -0.99852                      -0.05437                       0.00006
                      -0.99852                      -0.05433                       0.00006
                      -0.99853                      -0.05428                       0.00005
                      -0.99853                      -0.05420                       0.00003
                      -0.99854                      -0.05395                      -0.00009
                      -0.99853                      -0.05414                      -0.00009
                      -0.99853                      -0.05414                      -0.00022
                      -0.99853                      -0.05414                      -0.00033
                      -0.99847                      -0.05521                       0.00011
        </DataArray>
      </PointData>
      <Lines>
        <DataArray type="Int32" Name="connectivity" format="ascii">
      0      1
      1      2
      2      3
      3      4
      4      5
      5      6
      6      7
      7      8
      8      9
        </DataArray>
        <DataArray type="Int32" Name="offsets" format="ascii">
      2
      4
      6
      8
     10
     12
     14
     16
     18
        </DataArray>
      </Lines>
    </Piece>
  </PolyData>
</VTKFile>
