# vtk DataFile Version 2.0
BldPointCP.BldA
ASCII
 
DATASET POLYDATA
POINTS 9 double
 -0.11237600E+002 -0.18477525E+001  0.10642754E+003
 -0.27696192E+002 -0.45705336E+001  0.94713818E+002
 -0.40753753E+002 -0.67579244E+001  0.82448861E+002
 -0.49562730E+002 -0.82497862E+001  0.70158820E+002
 -0.52419987E+002 -0.87400393E+001  0.58172913E+002
 -0.49569640E+002 -0.82641360E+001  0.46187780E+002
 -0.40759622E+002 -0.67704107E+001  0.33894632E+002
 -0.27716832E+002 -0.45764291E+001  0.21612031E+002
 -0.11309599E+002 -0.18620111E+001  0.98263892E+001
  
POINT_DATA 9
SCALARS Gamma_LL double
LOOKUP_TABLE default
 -0.51346537E+001
 -0.15665929E+003
 -0.13846815E+003
 -0.12263195E+003
 -0.11920674E+003
 -0.11390880E+003
 -0.12094731E+003
 -0.14870566E+003
 -0.73654135E+002
VECTORS Vind_CP double
  0.80194067E-001 -0.21658232E+000  0.10084484E+000
 -0.38054166E+000  0.65002733E-002  0.39167416E+000
 -0.45530941E+000 -0.21026775E-001  0.32637324E+000
 -0.62255926E+000 -0.53906041E-001  0.20380575E+000
 -0.73325717E+000 -0.74191049E-001  0.39728720E-002
 -0.57964999E+000 -0.58643026E-001 -0.17514713E+000
 -0.39681872E+000 -0.26150890E-001 -0.27189655E+000
 -0.39522353E+000 -0.18450320E-001 -0.38396548E+000
 -0.15316635E+000 -0.13099155E-001 -0.64053868E-001
VECTORS Vtot_CP double
  0.12336570E+002  0.20107276E+002 -0.13419684E+001
  0.77912030E+001  0.50788978E+002 -0.26637475E+001
  0.31073663E+001  0.75246757E+002 -0.25133885E+001
 -0.89092005E+000  0.92017628E+002 -0.18516776E+001
 -0.22087850E+001  0.97648024E+002 -0.18644185E+001
 -0.76440787E+000  0.92205066E+002 -0.18244343E+001
  0.33057119E+001  0.75389566E+002 -0.11129693E+001
  0.82812904E+001  0.50836607E+002 -0.49217579E+000
  0.13663342E+002  0.20592924E+002 -0.61952717E-001
VECTORS Vstr_CP double
  0.49436243E+001 -0.20323859E+002  0.14428133E+001
  0.90282554E+001 -0.50782478E+002  0.30554217E+001
  0.13637324E+002 -0.75267784E+002  0.28397617E+001
  0.17468361E+002 -0.92071534E+002  0.20554833E+001
  0.18675528E+002 -0.97722215E+002  0.18683913E+001
  0.17384758E+002 -0.92263709E+002  0.16492872E+001
  0.13497469E+002 -0.75415717E+002  0.84107279E+000
  0.85234861E+001 -0.50855057E+002  0.10821030E+000
  0.33834919E+001 -0.20606023E+002 -0.21011509E-002
VECTORS Vwnd_CP double
  0.17200000E+002  0.00000000E+000  0.00000000E+000
  0.17200000E+002  0.00000000E+000  0.00000000E+000
  0.17200000E+002  0.00000000E+000  0.00000000E+000
  0.17200000E+002  0.00000000E+000  0.00000000E+000
  0.17200000E+002  0.00000000E+000  0.00000000E+000
  0.17200000E+002  0.00000000E+000  0.00000000E+000
  0.17200000E+002  0.00000000E+000  0.00000000E+000
  0.17200000E+002  0.00000000E+000  0.00000000E+000
  0.17200000E+002  0.00000000E+000  0.00000000E+000
VECTORS Tangent double
 -0.81905741E+000  0.57369395E+000 -0.44956841E-002
 -0.16648792E+000  0.98604335E+000  0.52540196E-003
 -0.16574982E+000  0.98616779E+000  0.30451298E-003
 -0.16021738E+000  0.98708139E+000 -0.84912733E-003
 -0.15759909E+000  0.98750316E+000 -0.20279776E-003
 -0.15671453E+000  0.98764388E+000 -0.35947769E-003
 -0.15731984E+000  0.98754769E+000 -0.15903030E-003
 -0.15918335E+000  0.98724897E+000  0.36781492E-003
 -0.16068479E+000  0.98700574E+000  0.27430607E-003
VECTORS Normal double
 -0.37053283E+000 -0.52299112E+000  0.76758433E+000
 -0.63465510E+000 -0.10756574E+000  0.76527284E+000
 -0.70450881E+000 -0.11862614E+000  0.69971078E+000
 -0.88516997E+000 -0.14329492E+000  0.44265189E+000
 -0.98750301E+000 -0.15759894E+000  0.62028758E-003
 -0.88566019E+000 -0.14069332E+000 -0.44250584E+000
 -0.70558200E+000 -0.11251438E+000 -0.69963887E+000
 -0.63728880E+000 -0.10247145E+000 -0.76378177E+000
 -0.50507170E+000 -0.81987024E-001 -0.85917443E+000
VECTORS Orth double
 -0.43800729E+000 -0.63036143E+000 -0.64093219E+000
 -0.75464871E+000 -0.12707524E+000 -0.64370584E+000
 -0.69006836E+000 -0.11576240E+000 -0.71442615E+000
 -0.43681176E+000 -0.71672149E-001 -0.89669314E+000
 -0.58057523E-003 -0.29802015E-003 -0.99999979E+000
  0.43708876E+000  0.69028721E-001 -0.89676555E+000
  0.69094465E+000  0.10995487E+000 -0.71449662E+000
  0.75400507E+000  0.12181574E+000 -0.64547446E+000
  0.84798760E+000  0.13819481E+000 -0.51168273E+000
