<?xml version="1.0"?>
<VTKFile type="PolyData" version="0.1" byte_order="LittleEndian">
  <PolyData>
    <Piece NumberOfPoints="    165" NumberOfVerts="  0" NumberOfLines="      0"
           NumberOfStrips="  0" NumberOfPolys="      0">
      <Points>
        <DataArray type="Float32" NumberOfComponents="3" format="ascii">
                       0.11418                       0.02209                     113.18135
                      -6.77831                      -1.11151                     109.55175
                     -13.19771                      -2.16866                     105.92096
                     -19.14155                      -3.15003                     102.28494
                     -20.83203                      -3.42977                     101.19328
                     -24.60761                      -4.05577                      98.64099
                     -29.58823                      -4.88370                      94.97887
                     -34.08281                      -5.63346                      91.30071
                     -38.09380                      -6.30523                      87.61239
                     -41.62573                      -6.89930                      83.92092
                     -44.68320                      -7.41587                      80.23148
                     -47.27018                      -7.85497                      76.54700
                     -49.38839                      -8.21626                      72.86755
                     -51.03783                      -8.49914                      69.19183
                     -52.21829                      -8.70289                      65.51848
                     -52.92823                      -8.82662                      61.84598
                     -53.16544                      -8.86952                      58.17347
                     -52.92922                      -8.83119                      54.50085
                     -52.22024                      -8.71157                      50.82806
                     -51.04097                      -8.51109                      47.15420
                     -49.39352                      -8.23042                      43.47751
                     -47.27860                      -7.87011                      39.79621
                     -44.69591                      -7.43068                      36.10894
                     -41.64233                      -6.91248                      32.41677
                     -38.11269                      -6.31566                      28.72389
                     -34.10291                      -5.64069                      25.03526
                     -29.61047                      -4.88829                      21.35550
                     -24.63655                      -4.05952                      17.68505
                     -20.87120                      -3.43463                      15.11785
                     -19.18668                      -3.15587                      14.01717
                     -13.26440                      -2.17875                      10.34641
                      -6.86904                      -1.12726                       6.67352
                       0.00019                       0.00005                       3.00016
                       0.11418                       0.02209                     113.18135
                       2.54978                       6.53356                     109.48715
                       4.81370                      12.59075                     105.78494
                       6.91201                      18.20053                     102.09017
                       7.51004                      19.79783                     100.98582
                       8.85159                      23.37825                      98.42581
                      10.63365                      28.12960                      94.79579
                      12.25235                      32.43886                      91.17245
                      13.70234                      36.29176                      87.53635
                      14.97944                      39.67842                      83.87865
                      16.08161                      42.59575                      80.20107
                      17.00900                      45.04666                      76.51122
                      17.76325                      47.03772                      72.81770
                      18.34653                      48.57617                      69.12675
                      18.76078                      49.66809                      65.44138
                      19.00768                      50.31819                      61.76183
                      19.08840                      50.52960                      58.08625
                      19.00335                      50.30310                      54.41166
                      18.75220                      49.63746                      50.73514
                      18.33399                      48.52977                      47.05485
                      17.74754                      46.97668                      43.37036
                      16.99142                      44.97433                      39.68299
                      16.06376                      42.51768                      35.99655
                      14.96287                      39.60230                      32.31647
                      13.68794                      36.22602                      28.64769
                      12.23940                      32.38998                      24.99237
                      10.61929                      28.09970                      21.34628
                       8.83051                      23.36305                      17.69938
                       7.47925                      19.78536                      15.14003
                       6.87528                      18.18627                      14.04084
                       4.75301                      12.56828                      10.36992
                       2.46224                       6.50736                       6.68763
                       0.00019                       0.00005                       3.00016
                       0.11418                       0.02209                     113.18135
                       4.50104                      -5.37356                     109.49071
                       8.57995                     -10.39363                     105.79169
                      12.35824                     -15.04222                     102.09850
                      13.43426                     -16.36544                     100.99400
                      15.84589                     -19.33020                      98.43142
                      19.04600                     -23.26254                      94.79499
                      21.95027                     -26.82824                      91.16604
                      24.55095                     -30.01687                      87.52765
                      26.84208                     -32.82077                      83.87136
                      28.82090                     -35.23695                      80.19754
                      30.48755                     -37.26663                      76.51178
                      31.84435                     -38.91412                      72.82123
                      32.89463                     -40.18513                      69.13181
                      33.64153                     -41.08517                      65.44698
                      34.08781                     -41.61916                      61.76750
                      34.23543                     -41.79061                      58.09190
                      34.08484                     -41.60074                      54.41730
                      33.63518                     -41.04871                      50.74088
                      32.88429                     -40.13162                      47.06098
                      31.82972                     -38.84584                      43.37774
                      30.46893                     -37.18747                      39.69317
                      28.79931                     -35.15257                      36.01115
                      26.81943                     -32.73878                      32.33576
                      24.52950                     -29.94597                      28.66950
                      21.93119                     -26.77596                      25.01231
                      19.02781                     -23.23277                      21.35971
                      15.82287                     -19.32062                      17.70479
                      13.40102                     -16.36389                      15.14197
                      12.31813                     -15.04157                      14.04241
                       8.51308                     -10.39460                      10.37231
                       4.40793                      -5.38109                       6.69065
                       0.00019                       0.00005                       3.00016
                      -0.09879                      -0.01602                      15.12061
                      -2.08748                      -0.34190                      15.12085
                      -4.17477                      -0.68444                      15.12152
                      -6.26198                      -1.02742                      15.12229
                      -8.34913                      -1.37077                      15.12291
                     -10.43622                      -1.71443                      15.12320
                     -12.52326                      -2.05831                      15.12303
                     -14.61027                      -2.40234                      15.12234
                     -16.69725                      -2.74646                      15.12111
                     -18.78423                      -3.09058                      15.11954
                     -20.87120                      -3.43463                      15.11785
                       0.03526                       0.09365                      15.12061
                       0.74777                       1.97869                      15.12612
                       1.49568                       3.95725                      15.13169
                       2.24361                       5.93581                      15.13672
                       2.99155                       7.91435                      15.14091
                       3.73951                       9.89288                      15.14406
                       4.48748                      11.87140                      15.14599
                       5.23544                      13.84991                      15.14662
                       5.98340                      15.82841                      15.14590
                       6.73134                      17.80689                      15.14372
                       7.47925                      19.78536                      15.14003
                       0.06322                      -0.07728                      15.12061
                       1.33956                      -1.63668                      15.12617
                       2.67940                      -3.27333                      15.13179
                       4.01939                      -4.90987                      15.13685
                       5.35949                      -6.54630                      15.14110
                       6.69968                      -8.18266                      15.14432
                       8.03993                      -9.81895                      15.14637
                       9.38022                     -11.45520                      15.14718
                      10.72052                     -13.09143                      15.14671
                      12.06079                     -14.72765                      15.14495
                      13.40102                     -16.36389                      15.14197
                      -0.06091                      -0.00959                     101.06349
                      -2.04943                      -0.33602                     101.06813
                      -4.13657                      -0.67901                     101.07628
                      -6.22365                      -1.02232                     101.08719
                      -8.31066                      -1.36589                     101.10030
                     -10.39762                      -1.70967                     101.11506
                     -12.48454                      -2.05361                     101.13094
                     -14.57143                      -2.39764                     101.14738
                     -16.65830                      -2.74172                     101.16380
                     -18.74516                      -3.08578                     101.17939
                     -20.83203                      -3.42977                     101.19328
                       0.07315                       0.10008                     101.06349
                       0.78511                       1.98564                     101.05584
                       1.53241                       3.96477                     101.04738
                       2.27971                       5.94390                     101.03848
                       3.02701                       7.92302                     101.02922
                       3.77430                       9.90213                     101.01979
                       4.52157                      11.88125                     101.01048
                       5.26880                      13.86037                     101.00173
                       6.01597                      15.83951                     100.99411
                       6.76306                      17.81866                     100.98847
                       7.51004                      19.79783                     100.98582
                       0.10110                      -0.07085                     101.06349
                       1.37793                      -1.63025                     101.05708
                       2.71798                      -3.26715                     101.04989
                       4.05791                      -4.90416                     101.04222
                       5.39771                      -6.54125                     101.03413
                       6.73741                      -8.17842                     101.02576
                       8.07700                      -9.81567                     101.01738
                       9.41648                     -11.45299                     101.00939
                      10.75586                     -13.09039                     101.00232
                      12.09512                     -14.72787                     100.99689
                      13.43426                     -16.36544                     100.99400
        </DataArray>
      </Points>
      <PointData>
        <DataArray type="Float32" Name="TranslationalVelocity" NumberOfComponents="3" format="ascii">
                       2.38638                       0.51435                      -0.00868
                       4.02830                     -12.07545                       0.79735
                       5.47380                     -23.84435                       1.66008
                       6.79435                     -34.79759                       2.45074
                       7.16797                     -37.92582                       2.67198
                       8.02950                     -44.93358                       3.11194
                       9.30428                     -54.20305                       3.46974
                      10.67982                     -62.59241                       3.49540
                      12.16374                     -70.10475                       3.24537
                      13.68583                     -76.75367                       2.85369
                      15.13055                     -82.55378                       2.46315
                      16.38720                     -87.51299                       2.16723
                      17.39058                     -91.62558                       1.98963
                      18.12494                     -94.87432                       1.90696
                      18.60917                     -97.23657                       1.87973
                      18.87865                     -98.68679                       1.87418
                      18.96119                     -99.20306                       1.87276
                      18.86247                     -98.77481                       1.86877
                      18.56795                     -97.40308                       1.85428
                      18.04783                     -95.10115                       1.81021
                      17.27337                     -91.88766                       1.70509
                      16.23801                     -87.78109                       1.50785
                      14.97115                     -82.79731                       1.20911
                      13.53946                     -76.94479                       0.84036
                      12.02615                     -70.22704                       0.47332
                      10.49362                     -62.65191                       0.18761
                       8.95870                     -54.23165                       0.03031
                       7.38960                     -44.98281                      -0.01240
                       6.24195                     -38.02705                      -0.00610
                       5.73297                     -34.93007                      -0.00193
                       3.95368                     -24.09391                       0.00712
                       2.04313                     -12.45877                       0.00537
                      -0.00007                      -0.00000                       0.00082
                       2.38638                       0.51435                      -0.00868
                      -9.81616                       4.79879                      -0.51572
                     -21.24183                       8.75526                      -1.04159
                     -31.79560                      12.51826                      -1.33058
                     -34.78376                      13.62514                      -1.34978
                     -41.42598                      16.22950                      -1.19851
                     -50.13441                      19.94952                      -0.62038
                     -57.94079                      23.52323                       0.12516
                     -64.87699                      26.76121                       0.77449
                     -70.99323                      29.46500                       1.12990
                     -76.33464                      31.50555                       1.13728
                     -80.91723                      32.87872                       0.88720
                     -84.72742                      33.68415                       0.53215
                     -87.73640                      34.06493                       0.20403
                     -89.91141                      34.16616                      -0.02090
                     -91.22625                      34.10434                      -0.12916
                     -91.66675                      33.95000                      -0.15581
                     -91.23098                      33.72326                      -0.15974
                     -89.92846                      33.39869                      -0.19821
                     -87.77569                      32.91986                      -0.30801
                     -84.79339                      32.21502                      -0.49616
                     -81.00543                      31.20074                      -0.73381
                     -76.43536                      29.78876                      -0.95534
                     -71.10176                      27.90792                      -1.07409
                     -65.01132                      25.53189                      -1.01851
                     -58.15363                      22.69748                      -0.77756
                     -50.50718                      19.49329                      -0.42179
                     -42.04994                      16.01949                      -0.07500
                     -35.63824                      13.46989                       0.09241
                     -32.76519                      12.35039                       0.13757
                     -22.65303                       8.47589                       0.20340
                     -11.72472                       4.37416                       0.13514
                      -0.00007                      -0.00000                       0.00082
                       2.38638                       0.51435                      -0.00868
                      11.72198                       8.41650                      -0.48225
                      20.30990                      15.77061                      -1.00865
                      28.29050                      22.50615                      -1.33458
                      30.58353                      24.39709                      -1.36918
                      35.80581                      28.53191                      -1.25230
                      42.90783                      33.79346                      -0.71321
                      49.49833                      38.39678                       0.01505
                      55.46246                      42.47973                       0.67790
                      60.67770                      46.19472                       1.07796
                      65.05733                      49.65321                       1.14601
                      68.58041                      52.88219                       0.94579
                      71.29028                      55.82412                       0.61351
                      73.26661                      58.37002                       0.28369
                      74.59700                      60.39182                       0.04505
                      75.35632                      61.77114                      -0.07601
                      75.59023                      62.42418                      -0.10890
                      75.30600                      62.31421                      -0.11441
                      74.47636                      61.45099                      -0.15460
                      73.04616                      59.88439                      -0.26657
                      70.94940                      57.68788                      -0.44815
                      68.12142                      54.94189                      -0.65645
                      64.51016                      51.71669                      -0.81986
                      60.09481                      48.05164                      -0.86894
                      54.89091                      43.94727                      -0.76829
                      48.94334                      39.37085                      -0.53461
                      42.31518                      34.26974                      -0.24041
                      35.06105                      28.59690                       0.02289
                      29.62657                      24.27171                       0.15093
                      27.20777                      22.33061                       0.19050
                      18.74840                      15.48210                       0.25991
                       9.68756                       8.03656                       0.18941
                      -0.00007                      -0.00000                       0.00082
                       0.01823                      -0.17970                       0.00240
                       0.60666                      -3.77427                       0.00182
                       1.22688                      -7.55728                       0.00369
                       1.84940                     -11.34922                       0.00666
                       2.47387                     -15.14871                       0.00947
                       3.09994                     -18.95437                       0.01121
                       3.72727                     -22.76482                       0.01125
                       4.35550                     -26.57869                       0.00928
                       4.98427                     -30.39458                       0.00528
                       5.61320                     -34.21116                      -0.00013
                       6.24195                     -38.02705                      -0.00610
                      -0.17932                       0.06176                       0.00240
                      -3.57795                       1.34679                       0.05714
                      -7.14368                       2.69507                       0.11181
                     -10.70802                       4.04289                       0.15952
                     -14.27119                       5.39032                       0.19663
                     -17.83341                       6.73743                       0.22022
                     -21.39491                       8.08426                       0.22819
                     -24.95591                       9.43088                       0.21932
                     -28.51665                      10.77734                       0.19332
                     -32.07735                      12.12365                       0.15059
                     -35.63824                      13.46989                       0.09241
                       0.12856                       0.11211                       0.00240
                       2.94360                       2.41635                       0.06061
                       5.90145                       4.83798                       0.11870
                       8.86207                       7.26229                       0.16997
                      11.82501                       9.68885                       0.21110
                      14.78983                      12.11722                       0.23945
                      17.75610                      14.54699                       0.25311
                      20.72336                      16.97774                       0.25102
                      23.69116                      19.40905                       0.23296
                      26.65904                      21.84051                       0.19923
                      29.62657                      24.27171                       0.15093
                       0.92630                      -0.04361                       0.00333
                       1.51763                      -3.65056                       0.10713
                       2.14044                      -7.44348                       0.28337
                       2.76524                     -11.24257                       0.51529
                       3.39176                     -15.04685                       0.78981
                       4.01971                     -18.85532                       1.09429
                       4.64873                     -22.66700                       1.41674
                       5.27847                     -26.48089                       1.74587
                       5.90853                     -30.29599                       2.07121
                       6.53848                     -34.11130                       2.38287
                       7.16797                     -37.92582                       2.67198
                       0.72875                       0.19785                       0.00333
                      -2.68179                       1.48752                      -0.17793
                      -6.25682                       2.83936                      -0.37145
                      -9.82776                       4.18963                      -0.56231
                     -13.39546                       5.53864                      -0.74441
                     -16.96078                       6.88673                      -0.91188
                     -20.52461                       8.23424                      -1.05916
                     -24.08785                       9.58151                      -1.18109
                     -27.65146                      10.92887                      -1.27299
                     -31.21642                      12.27665                      -1.33050
                     -34.78376                      13.62514                      -1.34978
                       1.03664                       0.24820                       0.00333
                       3.86361                       2.56016                      -0.16403
                       6.83227                       4.98762                      -0.34451
                       9.80197                       7.41560                      -0.52524
                      12.77228                       9.84377                      -0.70124