# vtk DataFile Version 2.0
BldPointCP.BldB
ASCII
 
DATASET POLYDATA
POINTS 9 double
  0.37607451E+001  0.10885855E+002  0.10629440E+003
  0.90164599E+001  0.26697589E+002  0.94531182E+002
  0.13255781E+002  0.39349447E+002  0.82378908E+002
  0.16107561E+002  0.47820588E+002  0.70111891E+002
  0.17009446E+002  0.50484996E+002  0.58086499E+002
  0.16092645E+002  0.47741447E+002  0.46075063E+002
  0.13238888E+002  0.39265087E+002  0.33797755E+002
  0.89893571E+001  0.26657001E+002  0.21592252E+002
  0.36634448E+001  0.10860653E+002  0.98391885E+001
  
POINT_DATA 9
SCALARS Gamma_LL double
LOOKUP_TABLE default
  0.11487674E+003
  0.54509432E+002
  0.21238922E+002
  0.31578756E+002
  0.54134381E+002
  0.46517198E+002
  0.32831361E+002
  0.46126820E+002
  0.53508508E+002
VECTORS Vind_CP double
  0.24934923E-001 -0.89665985E-001 -0.46701770E+000
 -0.57209413E-001 -0.99648657E-001 -0.15602545E+000
 -0.25303255E-001 -0.57847628E-001 -0.58424999E-002
 -0.60962881E-001 -0.25241828E+000 -0.33390900E-001
 -0.14327659E+000 -0.51807315E+000  0.14262991E-001
 -0.10394960E+000 -0.37361866E+000  0.10696330E+000
 -0.52039969E-001 -0.14818892E+000  0.83090545E-001
 -0.61100560E-001 -0.15483717E+000  0.15308289E+000
 -0.95052236E-001 -0.64474962E-001  0.13698930E+000
VECTORS Vtot_CP double
  0.34984958E+002 -0.70399145E+001  0.30261548E+000
  0.64432551E+002 -0.17271553E+002  0.49761554E+000
  0.87776430E+002 -0.25928686E+002 -0.46953804E+000
  0.10359444E+003 -0.30486134E+002 -0.41405998E+000
  0.10865220E+003 -0.31067089E+002  0.14662860E+000
  0.10345842E+003 -0.29339049E+002  0.56432739E+000
  0.87810594E+002 -0.24590451E+002  0.84907603E+000
  0.65052074E+002 -0.16733027E+002  0.53442009E+000
  0.36667443E+002 -0.66649624E+001  0.10841011E+000
VECTORS Vstr_CP double
 -0.17760023E+002  0.69502485E+001 -0.76963318E+000
 -0.47289760E+002  0.17171904E+002 -0.65364099E+000
 -0.70601733E+002  0.25870839E+002  0.46369554E+000
 -0.86455406E+002  0.30233715E+002  0.38066908E+000
 -0.91595481E+002  0.30549016E+002 -0.13236560E+000
 -0.86362367E+002  0.28965431E+002 -0.45736409E+000
 -0.70662634E+002  0.24442263E+002 -0.76598548E+000
 -0.47913175E+002  0.16578190E+002 -0.38133720E+000
 -0.19562495E+002  0.66004875E+001  0.28579191E-001
VECTORS Vwnd_CP double
  0.17200000E+002 -0.00000000E+000  0.00000000E+000
  0.17200000E+002 -0.00000000E+000  0.00000000E+000
  0.17200000E+002 -0.00000000E+000  0.00000000E+000
  0.17200000E+002 -0.00000000E+000  0.00000000E+000
  0.17200000E+002 -0.00000000E+000  0.00000000E+000
  0.17200000E+002 -0.00000000E+000  0.00000000E+000
  0.17200000E+002 -0.00000000E+000  0.00000000E+000
  0.17200000E+002 -0.00000000E+000  0.00000000E+000
  0.17200000E+002 -0.00000000E+000  0.00000000E+000
VECTORS Tangent double
  0.82668054E+000 -0.56267130E+000  0.53560349E-003
  0.94516562E+000 -0.32658805E+000 -0.14846515E-002
  0.94944223E+000 -0.31394038E+000 -0.94238554E-003
  0.94902398E+000 -0.31520386E+000 -0.12026108E-003
  0.94645563E+000 -0.32283392E+000 -0.51747332E-004
  0.94742980E+000 -0.31996364E+000 -0.18715944E-003
  0.94857756E+000 -0.31654480E+000 -0.80139521E-004
  0.94743269E+000 -0.31995513E+000  0.83239318E-004
  0.94713058E+000 -0.32083126E+000  0.33103029E-002
VECTORS Normal double
  0.29826150E+000  0.43901460E+000  0.84752950E+000
  0.20961723E+000  0.60314645E+000  0.76959403E+000
  0.22265018E+000  0.67123320E+000  0.70701689E+000
  0.28401783E+000  0.85496266E+000  0.43401926E+000
  0.32283053E+000  0.94644641E+000 -0.44323527E-002
  0.28756150E+000  0.85174149E+000 -0.43800093E+000
  0.22471360E+000  0.67356881E+000 -0.70413696E+000
  0.20513177E+000  0.60722468E+000 -0.76759309E+000
  0.16708692E+000  0.48439929E+000 -0.85874285E+000
VECTORS Orth double
  0.47711566E+000  0.70047640E+000 -0.53074802E+000
  0.25044475E+000  0.72770502E+000 -0.63853177E+000
  0.22132859E+000  0.67148151E+000 -0.70719603E+000
  0.13670173E+000  0.41192885E+000 -0.90090358E+000
 -0.14798899E-002 -0.41783196E-002 -0.99999018E+000
 -0.14030378E+000 -0.41492131E+000 -0.89897450E+000
 -0.22294487E+000 -0.66791051E+000 -0.71006418E+000
 -0.24554480E+000 -0.72725986E+000 -0.64093747E+000
 -0.27390804E+000 -0.81389473E+000 -0.51239609E+000
