<?xml version="1.0"?>
<VTKFile type="PolyData" version="0.1" byte_order="LittleEndian">
  <PolyData>
    <Piece NumberOfPoints="    165" NumberOfVerts="  0" NumberOfLines="      0"
           NumberOfStrips="  0" NumberOfPolys="      0">
      <Points>
        <DataArray type="Float32" NumberOfComponents="3" format="ascii">
                       0.19313                       0.03985                     113.18111
                      -6.64017                      -1.47027                     109.57661
                     -13.00727                      -2.87971                     105.97328
                     -18.90357                      -4.18924                     102.36312
                     -20.58063                      -4.56276                     101.27882
                     -24.32567                      -5.39894                      98.74162
                     -29.26227                      -6.50493                      95.09319
                     -33.71037                      -7.50624                      91.41829
                     -37.67150                      -8.40302                      87.72379
                     -41.15180                      -9.19600                      84.02048
                     -44.15932                      -9.88595                      80.31816
                     -46.70181                     -10.47335                      76.62320
                     -48.78360                     -10.95782                      72.93697
                     -50.40570                     -11.33821                      69.25775
                     -51.56770                     -11.61304                      65.58304
                     -52.26718                     -11.78051                      61.91018
                     -52.50116                     -11.83903                      58.23759
                     -52.26872                     -11.78780                      54.56480
                     -51.57079                     -11.62680                      50.89139
                     -50.41045                     -11.35692                      47.21583
                     -48.79037                     -10.97946                      43.53551
                     -46.71123                     -10.49563                      39.84781
                     -44.17174                      -9.90653                      36.15121
                     -41.16689                      -9.21280                      32.44764
                     -37.68927                      -8.41475                      28.74318
                     -33.73304                      -7.51307                      25.04496
                     -29.29507                      -6.50884                      21.35903
                     -24.37716                      -5.40355                      17.68576
                     -20.65256                      -4.57074                      15.11802
                     -18.98599                      -4.19941                      14.01730
                     -13.12618                      -2.89846                      10.34656
                      -6.79763                      -1.49938                       6.67364
                       0.00018                       0.00004                       3.00018
                       0.19313                       0.03985                     113.18111
                       2.25890                       6.66952                     109.47158
                       4.17643                      12.83569                     105.75347
                       5.95438                      18.54944                     102.04981
                       6.46158                      20.17739                     100.94475
                       7.60085                      23.83002                      98.38851
                       9.11688                      28.68482                      94.77422
                      10.49642                      33.09401                      91.17187
                      11.73370                      37.03814                      87.55468
                      12.82351                      40.50154                      83.90802
                      13.76278                      43.47705                      80.23166
                      14.55118                      45.96704                      76.53548
                      15.19056                      47.98059                      72.83228
                      15.68366                      49.52889                      69.13207
                      16.03315                      50.62230                      65.44022
                      16.24127                      51.26913                      61.75750
                      16.30949                      51.47476                      58.08118
                      16.23818                      51.24076                      54.40662
                      16.02674                      50.56534                      50.72924
                      15.67375                      49.44403                      47.04607
                      15.17747                      47.87145                      43.35640
                      14.53585                      45.84126                      39.66233
                      13.74646                      43.34583                      35.96953
                      12.80716                      40.37857                      32.28588
                      11.71699                      36.93648                      28.61846
                      10.47665                      33.02167                      24.96979
                       9.08871                      28.64224                      21.33362
                       7.55656                      23.80897                      17.69636
                       6.39973                      20.16045                      15.14154
                       5.88284                      18.53030                      14.04350
                       4.06697                      12.80470                      10.37424
                       2.10712                       6.62949                       6.69049
                       0.00018                       0.00004                       3.00018
                       0.19313                       0.03985                     113.18111
                       4.85318                      -5.11073                     109.47478
                       9.18321                      -9.90298                     105.75871
                      13.19493                     -14.34300                     102.05481
                      14.33805                     -15.60763                     100.94902
                      16.90267                     -18.44403                      98.38934
                      20.31115                     -22.21260                      94.76836
                      23.40915                     -25.63498                      91.16109
                      26.18542                     -28.69694                      87.54314
                      28.63014                     -31.38643                      83.89993
                      30.73762                     -33.69693                      80.22930
                      32.50712                     -35.62841                      76.53837
                      33.94217                     -37.18645                      72.83820
                      35.04861                     -38.37964                      69.13884
                      35.83257                     -39.21729                      65.44662
                      36.29940                     -39.70794                      61.76332
                      36.45275                     -39.85785                      58.08672
                      36.29344                     -39.66966                      54.41213
                      35.81979                     -39.14253                      50.73478
                      35.02784                     -38.27237                      47.05177
                      33.91288                     -37.05347                      43.36321
                      32.47010                     -35.47961                      39.67237
                      30.69509                     -33.54470                      35.98530
                      28.58568                     -31.24510                      32.30827
                      26.14256                     -28.58046                      28.64494
                      23.36888                     -25.55340                      24.99485
                      20.27009                     -22.16933                      21.35129
                      16.85159                     -18.43386                      17.70441
                      14.27005                     -15.61171                      15.14532
                      13.11617                     -14.34978                      14.04683
                       9.06295                      -9.91557                      10.37852
                       4.69199                      -5.13267                       6.69524
                       0.00018                       0.00004                       3.00018
                      -0.09807                      -0.02141                      15.12067
                      -2.06617                      -0.45461                      15.12088
                      -4.13176                      -0.91014                      15.12155
                      -6.19719                      -1.36638                      15.12236
                      -8.26247                      -1.82324                      15.12302
                     -10.32764                      -2.28060                      15.12334
                     -12.39271                      -2.73834                      15.12318
                     -14.45771                      -3.19633                      15.12248
                     -16.52267                      -3.65448                      15.12125
                     -18.58761                      -4.11265                      15.11967
                     -20.65256                      -4.57074                      15.11802
                       0.02987                       0.09535                      15.12067
                       0.63942                       2.01617                      15.12740
                       1.27930                       4.03228                      15.13419
                       1.91925                       6.04837                      15.14028
                       2.55926                       8.06443                      15.14529
                       3.19931                      10.08048                      15.14894
                       3.83939                      12.09651                      15.15102
                       4.47948                      14.11252                      15.15139
                       5.11958                      16.12852                      15.14999
                       5.75967                      18.14449                      15.14672
                       6.39973                      20.16045                      15.14154
                       0.06701                      -0.07383                      15.12067
                       1.42591                      -1.56184                      15.12763
                       2.85250                      -3.12346                      15.13463
                       4.27932                      -4.68488                      15.14092
                       5.70633                      -6.24612                      15.14615
                       7.13348                      -7.80721                      15.15006
                       8.56074                      -9.36820                      15.15244
                       9.98807                     -10.92911                      15.15318
                      11.41542                     -12.48998                      15.15224
                      12.84276                     -14.05083                      15.14960
                      14.27005                     -15.61171                      15.14532
                      -0.02817                      -0.01055                     101.06357
                      -1.99600                      -0.44473                     101.07159
                      -4.06134                      -0.90105                     101.08537
                      -6.12653                      -1.35787                     101.10363
                      -8.19160                      -1.81513                     101.12543
                     -10.25656                      -2.27272                     101.14983
                     -12.32144                      -2.73057                     101.17594
                     -14.38626                      -3.18859                     101.20287
                     -16.45104                      -3.64668                     101.22971
                     -18.51583                      -4.10477                     101.25540
                     -20.58063                      -4.56276                     101.27882
                       0.09977                       0.10621                     101.06357
                       0.70836                       2.02766                     101.05044
                       1.34735                       4.04440                     101.03612
                       1.98651                       6.06109                     101.02145
                       2.62579                       8.07773                     101.00668
                       3.26516                      10.09433                     100.99220
                       3.90457                      12.11092                     100.97846
                       4.54397                      14.12750                     100.96603
                       5.18332                      16.14410                     100.95561
                       5.82254                      18.16072                     100.94815
                       6.46158                      20.17739                     100.94475
                       0.13691                      -0.06297                     101.06357
                       1.49670                      -1.55065                     101.05168
                       2.92389                      -3.11223                     101.03860
                       4.35102                      -4.67386                     101.02505
                       5.77807                      -6.23555                     101.01124
                       7.20504                      -7.79731                     100.99747
                       8.63191                      -9.35915                     100.98418
                      10.05867                     -10.92108                     100.97192
                      11.48530                     -12.48313                     100.96136
                      12.91177                     -14.04530                     100.95338
                      14.33805                     -15.60763                     100.94902
        </DataArray>
      </Points>
      <PointData>
        <DataArray type="Float32" Name="TranslationalVelocity" NumberOfComponents="3" format="ascii">
                       2.85424                       0.66629                      -0.00767
                       5.16368                     -11.83632                       0.84704
                       7.21105                     -23.54469                       1.80204
                       9.06740                     -34.46120                       2.72311
                       9.58946                     -37.58302                       2.98908
                      10.76824                     -44.58242                       3.54998
                      12.43122                     -53.84456                       4.10181
                      14.15107                     -62.22058                       4.29803
                      15.98123                     -69.70448                       4.14716
                      17.88803                     -76.30978                       3.76241
                      19.76135                     -82.06047                       3.30415
                      21.46410                     -86.97741                       2.90651
                      22.88944                     -91.06397                       2.63220
                      23.98277                     -94.30468                       2.47995
                      24.73648                     -96.67173                       2.41430
                      25.17071                     -98.13099                       2.39442
                      25.30681                     -98.65279                       2.39064
                      25.15448                     -98.22198                       2.38356
                      24.71167                     -96.83884                       2.35623
                      23.96975                     -94.51907                       2.28776
                      22.92181                     -91.28629                       2.15224
                      21.57681                     -87.16521                       1.92737
                      19.96927                     -82.17747                       1.60920
                      18.15602                     -76.33611                       1.22241
                      16.20304                     -69.64740                       0.81979
                      14.16461                     -62.11945                       0.46489
                      12.06624                     -53.76195                       0.20691
                       9.90018                     -44.58694                       0.06013
                       8.33140                     -37.68711                       0.01728
                       7.64392                     -34.61527                       0.01029
                       5.25925                     -23.87092                       0.00268
                       2.71628                     -12.34110                       0.00271
                      -0.00050                      -0.00026                       0.00046
                       2.85424                       0.66629                      -0.00767
                      -9.58768                       4.26656                      -0.50699
                     -21.24456                       7.57800                      -1.03178
                     -32.03936                      10.74199                      -1.33510
                     -35.10399                      11.67661                      -1.36515
                     -41.94146                      13.87990                      -1.26855
                     -50.96209                      17.04420                      -0.80870
                     -59.09377                      20.11749                      -0.16923
                     -66.33499                      22.94470                       0.42939
                     -72.70224                      25.34398                       0.80081
                     -78.21880                      27.17877                       0.87400
                     -82.89866                      28.41753                       0.70774
                     -86.74193                      29.12642                       0.42574
                     -89.73912                      29.42321                       0.14574
                     -91.87610                      29.44269                      -0.05541
                     -93.14184                      29.30298                      -0.15524
                     -93.53284                      29.08169                      -0.17772
                     -93.05249                      28.81019                      -0.17209
                     -91.71052                      28.47659                      -0.19036
                     -89.51978                      28.03826                      -0.26970
                     -86.49581                      27.43261                      -0.42169
                     -82.65556                      26.58117                      -0.62445
                     -78.01329                      25.39994                      -0.82215
                     -72.57898                      23.81916                      -0.93778
                     -66.35574                      21.80811                      -0.90359
                     -59.33643                      19.39606                      -0.70580
                     -51.50847                      16.66305                      -0.40669
                     -42.86025                      13.70029                      -0.11721
                     -36.31335                      11.52946                       0.01542
                     -33.38204                      10.57834                       0.04712
                     -23.07368                       7.27942                       0.09140
                     -11.94478                       3.76461                       0.05993
                      -0.00050                      -0.00026                       0.00046
                       2.85424                       0.66629                      -0.00767
                      11.73060                       9.09607                      -0.57176
                      19.88464                      16.92570                      -1.17700
                      27.46667                      24.09478                      -1.56535
                      29.64746                      26.11021                      -1.61733
                      34.62295                      30.53564                      -1.54524
                      41.40992                      36.19776                      -1.06382
                      47.73100                      41.15930                      -0.35913
                      53.46973                      45.53112                       0.32834
                      58.49213                      49.45156                       0.79134
                      62.69271                      53.03971                       0.93462
                      66.03274                      56.34929                       0.79508
                      68.54781                      59.35571                       0.49479
                      70.32410                      61.97556                       0.17010
                      71.46825                      64.09190                      -0.07795
                      72.07910                      65.58356                      -0.20885
                      72.22190                      66.35457                      -0.24254
                      71.91542                      66.34927                      -0.23692
                      71.13454                      65.55548                      -0.25764
                      69.81676                      64.00253                      -0.34964
                      67.87976                      61.75029                      -0.51809
                      65.23864                      58.87365                      -0.72310
                      61.82456                      55.44300                      -0.89154
                      57.60839                      51.50353                      -0.94941
                      52.60572                      47.06792                      -0.85398
                      46.86964                      42.11787                      -0.61641
                      40.47836                      36.61200                      -0.31144
                      33.50233                      30.50780                      -0.04137
                      28.29449                      25.86330                       0.07903
                      25.98206                      23.77996                       0.11032
                      17.90060                      16.44941                       0.16261
                       9.24545                       8.52351                       0.12278
                      -0.00050                      -0.00026                       0.00046
                       0.03053                      -0.17895                       0.00141
                       0.81379                      -3.73808                      -0.00000
                       1.63992                      -7.48493                      -0.00095
                       2.46963                     -11.24164                      -0.00155
                       3.30235                     -15.00669                      -0.00187
                       4.13755                     -18.77856                      -0.00181
                       4.97468                     -22.55572                      -0.00117
                       5.81318                     -26.33665                       0.00042
                       6.65250                     -30.11986                       0.00347
                       7.49209                     -33.90384                       0.00879
                       8.33140                     -37.68711                       0.01728
                      -0.17978                       0.05148                       0.00141
                      -3.64366                       1.15139                       0.02960
                      -7.27773                       2.30551                       0.05772
                     -10.91028                       3.45930                       0.08209
                     -14.54150                       4.61280                       0.10067
                     -18.17163                       5.76604                       0.11167
                     -21.80086                       6.91907                       0.11366
                     -25.42944                       8.07190                       0.10554
                     -29.05757                       9.22455                       0.08658
                     -32.68547                      10.37707                       0.05652
                     -36.31335                      11.52946                       0.01542
                       0.12494                       0.11839                       0.00141
                       2.81228                       2.57211                       0.03796
                       5.63618                       5.15135                       0.07418
                       8.46293                       7.73394                       0.10612
                      11.29214                      10.31936                       0.13186
                      14.12335                      12.90712                       0.14971
                      16.95615                      15.49670                       0.15824
                      19.79011                      18.08760                       0.15626
                      22.62478                      20.67933                       0.14293
                      25.45972                      23.27139                       0.11738
                      28.29449                      25.86330                       0.07903
                       1.25549                      -0.02002                       0.00168
                       2.04356                      -3.59501                       0.12183
                       2.87410                      -7.35495                       0.31778
                       3.70780                     -11.12152                       0.57222
                       4.54424                     -14.89364                       0.87220
                       5.38293                     -18.67023                       1.20531
                       6.22331                     -22.45022                       1.55979
                       7.06477                     -26.23256                       1.92476
                       7.90671                     -30.01618                       2.29032
                       8.74847                     -33.80003                       2.64760
                       9.58946                     -37.58302                       2.98908
                       1.04519                       0.21042                       0.00168
                      -2.43359                       1.31291                      -0.17712
                      -6.07761                       2.46809                      -0.36864
                      -9.71523                       3.62154                      -0.55771
                     -13.34768                       4.77361                      -0.73805
                     -16.97619                       5.92467                      -0.90389
                     -20.60201                       7.07508                      -1.05011
                     -24.22640                       8.22517                      -1.17237
                     -27.85066                       9.37527                      -1.26717
                     -31.47608                      10.52567                      -1.33199
                     -35.10399                      11.67661                      -1.36515
                       1.34991                       0.27733                       0.00168
                       4.05168                       2.74515                      -0.19263
                       6.89077                       5.33828                      -0.40172
                       9.73256                       7.93370                      -0.61053
                      12.57641                      10.53077                      -0.81345