# vtk DataFile Version 2.0

ASCII
 
DATASET POLYDATA
POINTS 40 double
  0.44122161E-002  0.73674199E-003  0.11318264E+003
  0.10910793E+002 -0.17417313E+002  0.10093693E+003
  0.18607783E+002 -0.29705409E+002  0.88700661E+002
  0.25054419E+002 -0.39994564E+002  0.76458534E+002
  0.28276590E+002 -0.45137740E+002  0.64214348E+002
  0.28276541E+002 -0.45137653E+002  0.51969877E+002
  0.25054158E+002 -0.39993488E+002  0.39726269E+002
  0.18607602E+002 -0.29703152E+002  0.27483730E+002
  0.10910433E+002 -0.17416573E+002  0.15245554E+002
  0.59586345E-004  0.11894156E-004  0.30000384E+001
 -0.21040293E+001 -0.39747474E+001  0.11318272E+003
  0.71719749E+001 -0.19760216E+002  0.10093770E+003
  0.15983410E+002 -0.31349570E+002  0.88701197E+002
  0.22973540E+002 -0.41298126E+002  0.76458700E+002
  0.26365239E+002 -0.46335764E+002  0.64214428E+002
  0.26328194E+002 -0.46359237E+002  0.51969629E+002
  0.22850429E+002 -0.41373739E+002  0.39725953E+002
  0.15704712E+002 -0.31521967E+002  0.27483721E+002
  0.70970695E+001 -0.19805769E+002  0.15245558E+002
 -0.38133593E+001 -0.23890956E+001  0.29986820E+001
 -0.20066751E+001 -0.39368244E+001  0.11318286E+003
  0.69859750E+001 -0.19884904E+002  0.10093988E+003
  0.15585289E+002 -0.31627030E+002  0.88698642E+002
  0.22393228E+002 -0.41698415E+002  0.76456034E+002
  0.25693425E+002 -0.46796442E+002  0.64213152E+002
  0.25655920E+002 -0.46819194E+002  0.51970026E+002
  0.22269105E+002 -0.41772908E+002  0.39727260E+002
  0.15303577E+002 -0.31796052E+002  0.27484770E+002
  0.69106899E+001 -0.19929906E+002  0.15243237E+002
 -0.36839096E+001 -0.23198760E+001  0.29997237E+001
 -0.19060000E+001 -0.38971143E+001  0.11318291E+003
  0.67984790E+001 -0.20003986E+002  0.10094036E+003
  0.15184195E+002 -0.31897709E+002  0.88697816E+002
  0.21809073E+002 -0.42089536E+002  0.76455271E+002
  0.25016718E+002 -0.47245953E+002  0.64212725E+002
  0.24978734E+002 -0.47267883E+002  0.51970180E+002
  0.21683653E+002 -0.42161947E+002  0.39727634E+002
  0.14899489E+002 -0.32062084E+002  0.27485089E+002
  0.67224857E+001 -0.20047861E+002  0.15242543E+002
 -0.35531143E+001 -0.22500000E+001  0.29999979E+001
  
POLYGONS 27 135
      4      0      1     11     10
      4      1      2     12     11
      4      2      3     13     12
      4      3      4     14     13
      4      4      5     15     14
      4      5      6     16     15
      4      6      7     17     16
      4      7      8     18     17
      4      8      9     19     18
      4     10     11     21     20
      4     11     12     22     21
      4     12     13     23     22
      4     13     14     24     23
      4     14     15     25     24
      4     15     16     26     25
      4     16     17     27     26
      4     17     18     28     27
      4     18     19     29     28
      4     20     21     31     30
      4     21     22     32     31
      4     22     23     33     32
      4     23     24     34     33
      4     24     25     35     34
      4     25     26     36     35
      4     26     27     37     36
      4     27     28     38     37
      4     28     29     39     38
  
CELL_DATA 27
SCALARS Gamma double
LOOKUP_TABLE default
  0.12168383E-001
  0.26361473E-001
  0.20268502E-001
  0.22122473E-001
  0.24323726E-001
  0.23479501E-001
  0.22930704E-001
  0.28397287E-001
  0.76470951E-002
  0.12168383E-001
  0.26361473E-001
  0.20268502E-001
  0.22122473E-001
  0.24323726E-001
  0.23479501E-001
  0.22930704E-001
  0.28397287E-001
  0.76470951E-002
  0.00000000E+000
  0.00000000E+000
  0.00000000E+000
  0.00000000E+000
  0.00000000E+000
  0.00000000E+000
  0.00000000E+000
  0.00000000E+000
  0.00000000E+000
POINT_DATA 40
VECTORS Uconv double
  0.00000000E+000  0.00000000E+000  0.00000000E+000
  0.00000000E+000  0.00000000E+000  0.00000000E+000
  0.00000000E+000  0.00000000E+000  0.00000000E+000
  0.00000000E+000  0.00000000E+000  0.00000000E+000
  0.00000000E+000  0.00000000E+000  0.00000000E+000
  0.00000000E+000  0.00000000E+000  0.00000000E+000
  0.00000000E+000  0.00000000E+000  0.00000000E+000
  0.00000000E+000  0.00000000E+000  0.00000000E+000
  0.00000000E+000  0.00000000E+000  0.00000000E+000
  0.00000000E+000  0.00000000E+000  0.00000000E+000
  0.00000000E+000  0.00000000E+000  0.00000000E+000
  0.00000000E+000  0.00000000E+000  0.00000000E+000
  0.00000000E+000  0.00000000E+000  0.00000000E+000
  0.00000000E+000  0.00000000E+000  0.00000000E+000
  0.00000000E+000  0.00000000E+000  0.00000000E+000
  0.00000000E+000  0.00000000E+000  0.00000000E+000
  0.00000000E+000  0.00000000E+000  0.00000000E+000
  0.00000000E+000  0.00000000E+000  0.00000000E+000
  0.00000000E+000  0.00000000E+000  0.00000000E+000
  0.00000000E+000  0.00000000E+000  0.00000000E+000
  0.17200000E+002  0.00000000E+000  0.00000000E+000
  0.17200000E+002  0.00000000E+000  0.00000000E+000
  0.17200000E+002  0.00000000E+000  0.00000000E+000
  0.17200000E+002  0.00000000E+000  0.00000000E+000
  0.17200000E+002  0.00000000E+000  0.00000000E+000
  0.17200000E+002  0.00000000E+000  0.00000000E+000
  0.17200000E+002  0.00000000E+000  0.00000000E+000
  0.17200000E+002  0.00000000E+000  0.00000000E+000
  0.17200000E+002  0.00000000E+000  0.00000000E+000
  0.17200000E+002  0.00000000E+000  0.00000000E+000
  0.17200000E+002  0.00000000E+000  0.00000000E+000
  0.17200000E+002  0.00000000E+000  0.00000000E+000
  0.17200000E+002  0.00000000E+000  0.00000000E+000
  0.17200000E+002  0.00000000E+000  0.00000000E+000
  0.17200000E+002  0.00000000E+000  0.00000000E+000
  0.17200000E+002  0.00000000E+000  0.00000000E+000
  0.17200000E+002  0.00000000E+000  0.00000000E+000
  0.17200000E+002  0.00000000E+000  0.00000000E+000
  0.17200000E+002  0.00000000E+000  0.00000000E+000
  0.17200000E+002  0.00000000E+000  0.00000000E+000
