# vtk DataFile Version 2.0
BldPointCP.BldB
ASCII
 
DATASET POLYDATA
POINTS 9 double
  0.50121346E+001  0.10317753E+002  0.10634427E+003
  0.12265251E+002  0.25296384E+002  0.94565900E+002
  0.18062427E+002  0.37250434E+002  0.82339113E+002
  0.21982895E+002  0.45332671E+002  0.70081641E+002
  0.23246012E+002  0.47938329E+002  0.58092011E+002
  0.21978945E+002  0.45325208E+002  0.46103680E+002
  0.18058250E+002  0.37241130E+002  0.33846019E+002
  0.12262205E+002  0.25289610E+002  0.21612800E+002
  0.50008639E+001  0.10313481E+002  0.98331401E+001
  
POINT_DATA 9
SCALARS Gamma_LL double
LOOKUP_TABLE default
  0.15959946E+002
  0.89899100E+001
  0.56573961E+001
  0.72274289E+001
  0.89183685E+001
  0.81136264E+001
  0.70842443E+001
  0.95628548E+001
  0.98835952E+001
VECTORS Vind_CP double
 -0.60272107E-002 -0.78649283E-002 -0.43032736E-001
 -0.68170966E-002 -0.99622712E-002 -0.15803324E-001
 -0.35334957E-002 -0.68459774E-002 -0.35554441E-002
 -0.86910662E-002 -0.21585961E-001 -0.66093816E-002
 -0.15299665E-001 -0.37796788E-001  0.86907020E-004
 -0.10698149E-001 -0.26256715E-001  0.91957581E-002
 -0.60102479E-002 -0.13289672E-001  0.91155216E-002
 -0.93738692E-002 -0.17581544E-001  0.19787886E-001
 -0.91476265E-002 -0.86215276E-002  0.24383441E-001
VECTORS Vtot_CP double
  0.35113335E+002 -0.92157200E+001  0.46508113E+000
  0.62360285E+002 -0.23029885E+002  0.16748406E+000
  0.83737057E+002 -0.34127900E+002 -0.61715454E+000
  0.98525206E+002 -0.40607372E+002 -0.39132079E+000
  0.10350460E+003 -0.42256287E+002  0.27208795E-001
  0.98730547E+002 -0.40155518E+002  0.34694157E+000
  0.84002302E+002 -0.33424095E+002  0.56660113E+000
  0.62602352E+002 -0.22578414E+002  0.13428111E+000
  0.35778070E+002 -0.90286788E+001 -0.15972814E+000
VECTORS Vstr_CP double
 -0.17919363E+002  0.92078551E+001 -0.50811387E+000
 -0.45167102E+002  0.23019923E+002 -0.18328738E+000
 -0.66540590E+002  0.34121054E+002  0.61359909E+000
 -0.81333897E+002  0.40585786E+002  0.38471141E+000
 -0.86319904E+002  0.42218491E+002 -0.27121888E-001
 -0.81541246E+002  0.40129262E+002 -0.33774581E+000
 -0.66808312E+002  0.33410806E+002 -0.55748561E+000
 -0.45411726E+002  0.22560833E+002 -0.11449323E+000
 -0.18587218E+002  0.90200573E+001  0.18411158E+000
VECTORS Vwnd_CP double
  0.17200000E+002  0.00000000E+000  0.00000000E+000
  0.17200000E+002  0.00000000E+000  0.00000000E+000
  0.17200000E+002  0.00000000E+000  0.00000000E+000
  0.17200000E+002  0.00000000E+000  0.00000000E+000
  0.17200000E+002  0.00000000E+000  0.00000000E+000
  0.17200000E+002  0.00000000E+000  0.00000000E+000
  0.17200000E+002  0.00000000E+000  0.00000000E+000
  0.17200000E+002  0.00000000E+000  0.00000000E+000
  0.17200000E+002  0.00000000E+000  0.00000000E+000
VECTORS Tangent double
  0.75379717E+000 -0.65710715E+000  0.13321853E-003
  0.89928925E+000 -0.43735435E+000  0.13476201E-003
  0.90025545E+000 -0.43536199E+000  0.25154131E-003
  0.90009666E+000 -0.43569025E+000  0.11991615E-003
  0.89974086E+000 -0.43642454E+000 -0.53254747E-004
  0.90007087E+000 -0.43574348E+000 -0.20629032E-003
  0.90012703E+000 -0.43562750E+000 -0.75594273E-004
  0.89969111E+000 -0.43652710E+000  0.50570261E-004
  0.89967486E+000 -0.43656012E+000  0.64530251E-003
VECTORS Normal double
  0.34559363E+000  0.39661842E+000  0.85044628E+000
  0.28143937E+000  0.57893223E+000  0.76526423E+000
  0.30882970E+000  0.63901497E+000  0.70447433E+000
  0.39054791E+000  0.80695860E+000  0.44304643E+000
  0.43642446E+000  0.89974077E+000 -0.49481748E-003
  0.39048118E+000  0.80678709E+000 -0.44341746E+000
  0.30919357E+000  0.63900174E+000 -0.70432671E+000
  0.28121006E+000  0.57949096E+000 -0.76492557E+000
  0.22404595E+000  0.46045027E+000 -0.85894642E+000
VECTORS Orth double
  0.55888716E+000  0.64101796E+000 -0.52606189E+000
  0.33476966E+000  0.68815597E+000 -0.64371627E+000
  0.30686209E+000  0.63412917E+000 -0.70972942E+000
  0.19312778E+000  0.39873778E+000 -0.89649866E+000
 -0.26386596E-003 -0.42196583E-003 -0.99999988E+000
 -0.19338270E+000 -0.39902659E+000 -0.89631519E+000
 -0.30687239E+000 -0.63396014E+000 -0.70987596E+000
 -0.33388144E+000 -0.68821096E+000 -0.64411867E+000
 -0.37468462E+000 -0.77291708E+000 -0.51206506E+000
