# vtk DataFile Version 2.0

ASCII
 
DATASET POLYDATA
POINTS 180 double
  0.31622711E+000  0.69600560E-001  0.11318073E+003
  0.48966659E+001  0.20013169E+002  0.10076703E+003
  0.82061060E+001  0.34266415E+002  0.88708254E+002
  0.11007609E+002  0.46169138E+002  0.76562773E+002
  0.12361572E+002  0.51870720E+002  0.64213630E+002
  0.12365666E+002  0.51761661E+002  0.51948296E+002
  0.11004236E+002  0.45974313E+002  0.39643740E+002
  0.81860950E+001  0.34174090E+002  0.27394451E+002
  0.47903975E+001  0.19986140E+002  0.15262928E+002
  0.16091521E-003  0.30462559E-004  0.30001936E+001
  0.35721414E+001 -0.30365949E+001  0.11320464E+003
  0.91626547E+001  0.18886605E+002  0.10075483E+003
  0.11218236E+002  0.33547046E+002  0.88694939E+002
  0.13403052E+002  0.45629549E+002  0.76557621E+002
  0.14554693E+002  0.51342756E+002  0.64213083E+002
  0.14597649E+002  0.51207965E+002  0.51947680E+002
  0.13536637E+002  0.45384004E+002  0.39642562E+002
  0.11519895E+002  0.33386282E+002  0.27394449E+002
  0.91635960E+001  0.18925416E+002  0.15263482E+002
  0.43753954E+001 -0.10511804E+001  0.30479315E+001
  0.36560238E+001 -0.31003623E+001  0.11319321E+003
  0.96579849E+001  0.18719779E+002  0.10075126E+003
  0.11987569E+002  0.33330365E+002  0.88698144E+002
  0.14397394E+002  0.45359338E+002  0.76553929E+002
  0.15655996E+002  0.51058985E+002  0.64213600E+002
  0.15694207E+002  0.50933210E+002  0.51950440E+002
  0.14523519E+002  0.45125841E+002  0.39648909E+002
  0.12288975E+002  0.33165916E+002  0.27403200E+002
  0.96732919E+001  0.18753320E+002  0.15267631E+002
  0.45264174E+001 -0.11286298E+001  0.30545191E+001
  0.37403069E+001 -0.31618074E+001  0.11317930E+003
  0.10150866E+002  0.18544747E+002  0.10074467E+003
  0.12752884E+002  0.33101176E+002  0.88700288E+002
  0.15384868E+002  0.45070169E+002  0.76547804E+002
  0.16750569E+002  0.50755748E+002  0.64212853E+002
  0.16784942E+002  0.50640311E+002  0.51953833E+002
  0.15504875E+002  0.44851023E+002  0.39656934E+002
  0.13053570E+002  0.32933566E+002  0.27413326E+002
  0.10179887E+002  0.18575301E+002  0.15271880E+002
  0.46762763E+001 -0.12053696E+001  0.30605033E+001
  0.38230344E+001 -0.32249479E+001  0.11317258E+003
  0.10642569E+002  0.18365860E+002  0.10073985E+003
  0.13513917E+002  0.32859555E+002  0.88701007E+002
  0.16365802E+002  0.44765073E+002  0.76540547E+002
  0.17838462E+002  0.50434926E+002  0.64212160E+002
  0.17869710E+002  0.50329846E+002  0.51958012E+002
  0.16480386E+002  0.44559544E+002  0.39666459E+002
  0.13813620E+002  0.32689685E+002  0.27424313E+002
  0.10682323E+002  0.18388066E+002  0.15280272E+002
  0.48245754E+001 -0.12824475E+001  0.30633098E+001
  0.39062755E+001 -0.32863134E+001  0.11316774E+003
  0.11133456E+002  0.18183913E+002  0.10073963E+003
  0.14269557E+002  0.32602597E+002  0.88697292E+002
  0.17339912E+002  0.44444343E+002  0.76532043E+002
  0.18919311E+002  0.50096533E+002  0.64211467E+002
  0.18947943E+002  0.50001123E+002  0.51962104E+002
  0.17450345E+002  0.44253113E+002  0.39676832E+002
  0.14568555E+002  0.32433176E+002  0.27437574E+002
  0.11182595E+002  0.18198776E+002  0.15284798E+002
  0.49712388E+001 -0.13596544E+001  0.30659067E+001
  0.39913541E+001 -0.33437739E+001  0.11316296E+003
  0.11622805E+002  0.17996686E+002  0.10074004E+003
  0.15020950E+002  0.32335441E+002  0.88694214E+002
  0.18306357E+002  0.44107104E+002  0.76521756E+002
  0.19992538E+002  0.49740361E+002  0.64210004E+002
  0.20019111E+002  0.49653848E+002  0.51967140E+002
  0.18413820E+002  0.43930129E+002  0.39688536E+002
  0.15318288E+002  0.32164504E+002  0.27452784E+002
  0.11679726E+002  0.18004311E+002  0.15288612E+002
  0.51169916E+001 -0.14356363E+001  0.30680021E+001
  0.40755640E+001 -0.34018669E+001  0.11315748E+003
  0.12110728E+002  0.17804925E+002  0.10074548E+003
  0.15768352E+002  0.32059317E+002  0.88693341E+002
  0.19265433E+002  0.43755274E+002  0.76510724E+002
  0.21059378E+002  0.49370711E+002  0.64208450E+002
  0.21084828E+002  0.49293316E+002  0.51971908E+002
  0.19371497E+002  0.43593170E+002  0.39700055E+002
  0.16064130E+002  0.31888306E+002  0.27464133E+002
  0.12173754E+002  0.17804923E+002  0.15291841E+002
  0.52611644E+001 -0.15116395E+001  0.30695889E+001
  0.41603484E+001 -0.34585495E+001  0.11315093E+003
  0.12596948E+002  0.17608030E+002  0.10075451E+003
  0.16510956E+002  0.31772647E+002  0.88692438E+002
  0.20217541E+002  0.43390837E+002  0.76500122E+002
  0.22119153E+002  0.48986983E+002  0.64207048E+002
  0.22144366E+002  0.48918580E+002  0.51975978E+002
  0.20323901E+002  0.43244165E+002  0.39709706E+002
  0.16805382E+002  0.31602716E+002  0.27474020E+002
  0.12664676E+002  0.17600827E+002  0.15294129E+002
  0.54040119E+001 -0.15872381E+001  0.30708005E+001
  0.42491519E+001 -0.35086759E+001  0.11315079E+003
  0.13081274E+002  0.17406428E+002  0.10077126E+003
  0.17249023E+002  0.31476679E+002  0.88692462E+002
  0.21162683E+002  0.43014667E+002  0.76490162E+002
  0.23173455E+002  0.48594110E+002  0.64206293E+002
  0.23198472E+002  0.48531817E+002  0.51979399E+002
  0.21270820E+002  0.42883776E+002  0.39717564E+002
  0.17542105E+002  0.31308390E+002  0.27481514E+002
  0.13152614E+002  0.17392239E+002  0.15294601E+002
  0.55458942E+001 -0.16619318E+001  0.30726740E+001
  0.43371695E+001 -0.35601619E+001  0.11314676E+003
  0.13563386E+002  0.17199620E+002  0.10079371E+003
  0.17981988E+002  0.31170790E+002  0.88692655E+002
  0.22100760E+002  0.42627062E+002  0.76480541E+002
  0.24222434E+002  0.48192711E+002  0.64206508E+002
  0.24249450E+002  0.48140597E+002  0.51980593E+002
  0.22211298E+002  0.42509454E+002  0.39725134E+002
  0.18273770E+002  0.31004467E+002  0.27487902E+002
  0.13637408E+002  0.17179252E+002  0.15292989E+002
  0.56872039E+001 -0.17352181E+001  0.30693658E+001
  0.44272919E+001 -0.36085938E+001  0.11313830E+003
  0.14043094E+002  0.16987782E+002  0.10082233E+003
  0.18710018E+002  0.30856326E+002  0.88693691E+002
  0.23032324E+002  0.42229737E+002  0.76472886E+002
  0.25265802E+002  0.47782152E+002  0.64207219E+002
  0.25294988E+002  0.47738516E+002  0.51980500E+002
  0.23146835E+002  0.42126794E+002  0.39728838E+002
  0.19000560E+002  0.30692031E+002  0.27491762E+002
  0.14118990E+002  0.16961816E+002  0.15288670E+002
  0.58274137E+001 -0.18080474E+001  0.30657853E+001
  0.45176211E+001 -0.36567856E+001  0.11312467E+003
  0.14520254E+002  0.16770961E+002  0.10085500E+003
  0.19432854E+002  0.30533573E+002  0.88695605E+002
  0.23957614E+002  0.41824165E+002  0.76467953E+002
  0.26304766E+002  0.47366721E+002  0.64210388E+002
  0.26336987E+002  0.47332011E+002  0.51976579E+002
  0.24076977E+002  0.41735230E+002  0.39727855E+002
  0.19722848E+002  0.30372579E+002  0.27491602E+002
  0.14597156E+002  0.16739732E+002  0.15281894E+002
  0.59670859E+001 -0.18793233E+001  0.30621317E+001
  0.46101950E+001 -0.37025706E+001  0.11311433E+003
  0.14994220E+002  0.16547743E+002  0.10088549E+003
  0.20150491E+002  0.30203558E+002  0.88699080E+002
  0.24877028E+002  0.41411358E+002  0.76466606E+002
  0.27335824E+002  0.46937159E+002  0.64214225E+002
  0.27371081E+002  0.46909907E+002  0.51971703E+002
  0.25000693E+002  0.41333225E+002  0.39724166E+002
  0.20439699E+002  0.30044383E+002  0.27489428E+002
  0.15071638E+002  0.16512649E+002  0.15273215E+002
  0.61046195E+001 -0.19520009E+001  0.30580560E+001
  0.47044970E+001 -0.37483625E+001  0.11311503E+003
  0.15464518E+002  0.16317720E+002  0.10091315E+003
  0.20862211E+002  0.29865587E+002  0.88701852E+002
  0.25788963E+002  0.40987539E+002  0.76466489E+002
  0.28356657E+002  0.46488481E+002  0.64217194E+002
  0.28394473E+002  0.46466817E+002  0.51967278E+002
  0.25915927E+002  0.40916845E+002  0.39719765E+002
  0.21150656E+002  0.29707160E+002  0.27485872E+002
  0.15542074E+002  0.16280136E+002  0.15263505E+002
  0.62409667E+001 -0.20240748E+001  0.30541895E+001
  0.48039912E+001 -0.37851190E+001  0.11310869E+003
  0.15930919E+002  0.16081355E+002  0.10093430E+003
  0.21567197E+002  0.29518902E+002  0.88703056E+002
  0.26692984E+002  0.40551587E+002  0.76467041E+002
  0.29365330E+002  0.46017218E+002  0.64219015E+002
  0.29404615E+002  0.45998459E+002  0.51963997E+002
  0.26821435E+002  0.40484186E+002  0.39716029E+002
  0.21854268E+002  0.29358531E+002  0.27484399E+002
  0.16006697E+002  0.16038983E+002  0.15256848E+002
  0.63757426E+001 -0.20960171E+001  0.30505955E+001
  0.49016170E+001 -0.38298483E+001  0.11309753E+003
  0.16392662E+002  0.15839023E+002  0.10095004E+003
  0.22266770E+002  0.29166568E+002  0.88705125E+002
  0.27589331E+002  0.40103689E+002  0.76467656E+002
  0.30361859E+002  0.45524531E+002  0.64219508E+002
  0.30400831E+002  0.45504767E+002  0.51962507E+002
  0.27717536E+002  0.40036293E+002  0.39713465E+002
  0.22552075E+002  0.29002738E+002  0.27481153E+002
  0.16467466E+002  0.15794435E+002  0.15247914E+002
  0.65091284E+001 -0.21674491E+001  0.30480705E+001
  0.50025008E+001 -0.38709171E+001  0.11309402E+003
  0.16849838E+002  0.15591745E+002  0.10095864E+003
  0.22961662E+002  0.28808938E+002  0.88708549E+002
  0.28479473E+002  0.39646900E+002  0.76468872E+002
  0.31347964E+002  0.45014461E+002  0.64219267E+002
  0.31387088E+002  0.44995054E+002  0.51962457E+002
  0.28606680E+002  0.39578005E+002  0.39711361E+002
  0.23244723E+002  0.28641070E+002  0.27476274E+002
  0.16923374E+002  0.15544543E+002  0.15241423E+002
  0.66415546E+001 -0.22377946E+001  0.30468194E+001
  
POLYGONS 153 765
      4      0      1     11     10
      4      1      2     12     11
      4      2      3     13     12
      4      3      4     14     13
      4      4      5     15     14
      4      5      6     16     15
      4      6      7     17     16
      4      7      8     18     17
      4      8      9     19     18
      4     10     11     21     20
      4     11     12     22     21
      4     12     13     23     22
      4     13     14     24     23
      4     14     15     25     24
      4     15     16     26     25
      4     16     17     27     26
      4     17     18     28     27
      4     18     19     29     28
      4     20     21     31     30
      4     21     22     32     31
      4     22     23     33     32
      4     23     24     34     33
      4     24     25     35     34
      4     25     26     36     35
      4     26     27     37     36
      4     27     28     38     37
      4     28     29     39     38
      4     30     31     41     40
      4     31     32     42     41
      4     32     33     43     42
      4     33     34     44     43
      4     34     35     45     44
      4     35     36     46     45
      4     36     37     47     46
      4     37     38     48     47
      4     38     39     49     48
      4     40     41     51     50
      4     41     42     52     51
      4     42     43     53     52
      4     43     44     54     53
      4     44     45     55     54
      4     45     46     56     55
      4     46     47     57     56
      4     47     48     58     57
      4     48     49     59     58
      4     50     51     61     60
      4     51     52     62     61
      4     52     53     63     62
      4     53     54     64     63
      4     54     55     65     64
      4     55     56     66     65
      4     56     57     67     66
      4     57     58     68     67
      4     58     59     69     68
      4     60     61     71     70
      4     61     62     72     71
      4     62     63     73     72
      4     63     64     74     73
      4     64     65     75     74
      4     65     66     76     75
      4     66     67     77     76
      4     67     68     78     77
      4     68     69     79     78
      4     70     71     81     80
      4     71     72     82     81
      4     72     73     83     82
      4     73     74     84     83
      4     74     75     85     84
      4     75     76     86     85
      4     76     77     87     86
      4     77     78     88     87
      4     78     79     89     88
      4     80     81     91     90
      4     81     82     92     91
      4     82     83     93     92
      4     83     84     94     93
      4     84     85     95     94
      4     85     86     96     95
      4     86     87     97     96
      4     87     88     98     97
      4     88     89     99     98
      4     90     91    101    100
      4     91     92    102    101
      4     92     93    103    102
      4     93     94    104    103
      4     94     95    105    104
      4     95     96    106    105
      4     96     97    107    106
      4     97     98    108    107
      4     98     99    109    108
      4    100    101    111    110
      4    101    102    112    111
      4    102    103    113    112
      4    103    104    114    113
      4    104    105    115    114
      4    105    106    116    115
      4    106    107    117    116
      4    107    108    118    117
      4    108    109    119    118
      4    110    111    121    120
      4    111    112    122    121
      4    112    113    123    122
      4    113    114    124    123
      4    114    115    125    124
      4    115    116    126    125
      4    116    117    127    126
      4    117    118    128    127
      4    118    119    129    128
      4    120    121    131    130
      4    121    122    132    131
      4    122    123    133    132
      4    123    124    134    133
      4    124    125    135    134
      4    125    126    136    135
      4    126    127    137    136
      4    127    128    138    137
      4    128    129    139    138
      4    130    131    141    140
      4    131    132    142    141
      4    132    133    143    142
      4    133    134    144    143
      4    134    135    145    144
      4    135    136    146    145
      4    136    137    147    146
      4    137    138    148    147
      4    138    139    149    148
      4    140    141    151    150
      4    141    142    152    151
      4    142    143    153    152
      4    143    144    154    153
      4    144    145    155    154
      4    145    146    156    155
      4    146    147    157    156
      4    147    148    158    157
      4    148    149    159    158
      4    150    151    161    160
      4    151    152    162    161
      4    152    153    163    162
      4    153    154    164    163
      4    154    155    165    164
      4    155    156    166    165
      4    156    157    167    166
      4    157    158    168    167
      4    158    159    169    168
      4    160    161    171    170
      4    161    162    172    171
      4    162    163    173    172
      4    163    164    174    173
      4    164    165    175    174
      4    165    166    176    175
      4    166    167    177    176
      4    167    168    178    177
      4    168    169    179    178
  
CELL_DATA 153
SCALARS Gamma double
LOOKUP_TABLE default
  0.10803232E+003
  0.49368156E+002
  0.19173718E+002
  0.19184389E+002
  0.38855487E+002
  0.33590084E+002
  0.23805856E+002
  0.33415121E+002
  0.40088579E+002
  0.10803232E+003
  0.49368156E+002
  0.19173718E+002
  0.19184389E+002
  0.38855487E+002
  0.33590084E+002
  0.23805856E+002
  0.33415121E+002
  0.40088579E+002
  0.10970619E+003
  0.50424130E+002
  0.19104853E+002
  0.21197282E+002
  0.41840007E+002
  0.36112826E+002
  0.25374825E+002
  0.35722205E+002
  0.42739685E+002
  0.11112772E+003
  0.51398107E+002
  0.19179802E+002
  0.23452183E+002
  0.44919203E+002
  0.38693043E+002
  0.27024695E+002
  0.38104920E+002
  0.45401503E+002
  0.11244064E+003
  0.52404588E+002
  0.19556516E+002
  0.25948359E+002
  0.48011656E+002
  0.41314340E+002
  0.28826573E+002
  0.40632908E+002
  0.48082909E+002
  0.11372478E+003
  0.53426427E+002
  0.20225088E+002
  0.28672640E+002
  0.51117529E+002
  0.43943908E+002
  0.30757073E+002
  0.43294595E+002
  0.50780150E+002
  0.11487674E+003
  0.54509432E+002
  0.21238922E+002
  0.31578756E+002
  0.54134381E+002
  0.46517198E+002
  0.32831361E+002
  0.46126820E+002
  0.53508508E+002
  0.11550391E+003
  0.55599070E+002
  0.22622397E+002
  0.34596947E+002
  0.56909105E+002
  0.48939084E+002
  0.35019932E+002
  0.49063237E+002
  0.56174020E+002
  0.11260791E+003
  0.55118972E+002
  0.23710119E+002
  0.36574781E+002
  0.57627379E+002
  0.49673087E+002
  0.36249274E+002
  0.50634756E+002
  0.57102687E+002
  0.10000560E+003
  0.49889924E+002
  0.22951288E+002
  0.35053800E+002
  0.52787068E+002
  0.45703218E+002
  0.34215870E+002
  0.47591404E+002
  0.52785673E+002
  0.80240252E+002
  0.41003710E+002
  0.20324579E+002
  0.30230284E+002
  0.43423174E+002
  0.37859980E+002
  0.29248693E+002
  0.40490246E+002
  0.44129981E+002
  0.57999852E+002
  0.30493256E+002
  0.16374694E+002
  0.23384678E+002
  0.31974723E+002
  0.28167340E+002
  0.22576558E+002
  0.31041105E+002
  0.33225043E+002
  0.35761694E+002
  0.19421458E+002
  0.11297451E+002
  0.15331624E+002
  0.19929530E+002
  0.17800053E+002
  0.14857698E+002
  0.20276385E+002
  0.21328000E+002
  0.15959946E+002
  0.89899100E+001
  0.56573961E+001
  0.72274289E+001
  0.89183685E+001
  0.81136264E+001
  0.70842443E+001
  0.95628548E+001
  0.98835952E+001
  0.32256505E+001
  0.18979344E+001
  0.12865983E+001
  0.15436262E+001
  0.18072758E+001
  0.16817938E+001
  0.15339126E+001
  0.20388992E+001
  0.20787311E+001
  0.37831218E-001
  0.23374740E-001
  0.16846978E-001
  0.18749696E-001
  0.20843277E-001
  0.19884976E-001
  0.19074689E-001
  0.25027292E-001
  0.25240302E-001
  0.00000000E+000
  0.00000000E+000
  0.00000000E+000
  0.00000000E+000
  0.00000000E+000
  0.00000000E+000
  0.00000000E+000
  0.00000000E+000
  0.00000000E+000
POINT_DATA 180
VECTORS Uconv double
  0.00000000E+000  0.00000000E+000  0.00000000E+000
  0.00000000E+000  0.00000000E+000  0.00000000E+000
  0.00000000E+000  0.00000000E+000  0.00000000E+000
  0.00000000E+000  0.00000000E+000  0.00000000E+000
  0.00000000E+000  0.00000000E+000  0.00000000E+000
  0.00000000E+000  0.00000000E+000  0.00000000E+000
  0.00000000E+000  0.00000000E+000  0.00000000E+000
  0.00000000E+000  0.00000000E+000  0.00000000E+000
  0.00000000E+000  0.00000000E+000  0.00000000E+000
  0.00000000E+000  0.00000000E+000  0.00000000E+000
  0.00000000E+000  0.00000000E+000  0.00000000E+000
  0.00000000E+000  0.00000000E+000  0.00000000E+000
  0.00000000E+000  0.00000000E+000  0.00000000E+000
  0.00000000E+000  0.00000000E+000  0.00000000E+000
  0.00000000E+000  0.00000000E+000  0.00000000E+000
  0.00000000E+000  0.00000000E+000  0.00000000E+000
  0.00000000E+000  0.00000000E+000  0.00000000E+000
  0.00000000E+000  0.00000000E+000  0.00000000E+000
  0.00000000E+000  0.00000000E+000  0.00000000E+000
  0.00000000E+000  0.00000000E+000  0.00000000E+000
  0.17148976E+002  0.12176601E+000 -0.88222847E+000
  0.16975421E+002 -0.53235038E+000 -0.16773904E+001
  0.17063114E+002 -0.31237046E+000 -0.36736271E+000
  0.17101606E+002 -0.18629087E+000 -0.68204699E-001
  0.17010461E+002 -0.47996344E+000 -0.35874616E-001
  0.16952310E+002 -0.66802641E+000  0.13182504E+000
  0.17022031E+002 -0.43693532E+000  0.23668535E+000
  0.17038463E+002 -0.37242310E+000  0.39562219E+000
  0.17024317E+002 -0.40263401E+000  0.39065849E+000
  0.17052062E+002  0.78327433E-001  0.10144235E+001
  0.17137685E+002  0.10941724E+000 -0.96121431E+000
  0.16943257E+002 -0.66544588E+000 -0.18389531E+001
  0.17057176E+002 -0.32882133E+000 -0.38711559E+000
  0.17085215E+002 -0.24146079E+000 -0.99016991E-001
  0.16991301E+002 -0.54956531E+000 -0.60472886E-001
  0.16904928E+002 -0.82151370E+000  0.16282155E+000
  0.16996645E+002 -0.51814697E+000  0.28946895E+000
  0.17027214E+002 -0.40244880E+000  0.43124136E+000
  0.17022948E+002 -0.39973547E+000  0.40431405E+000
  0.17057105E+002  0.85619100E-001  0.98132378E+000
  0.17072165E+002 -0.16851692E-001 -0.64998246E+000
  0.16954217E+002 -0.65256826E+000 -0.18499786E+001
  0.17052619E+002 -0.34139257E+000 -0.40245244E+000
  0.17066382E+002 -0.30211214E+000 -0.13323641E+000
  0.16953535E+002 -0.67194480E+000 -0.85668268E-001
  0.16888828E+002 -0.88147785E+000  0.19638557E+000
  0.16969200E+002 -0.60278307E+000  0.34246322E+000
  0.17016909E+002 -0.42944280E+000  0.46365107E+000
  0.16992064E+002 -0.50280363E+000  0.54260810E+000
  0.17066580E+002  0.10038275E+000  0.94878172E+000
  0.17063049E+002 -0.28212965E-001 -0.66756652E+000
  0.16977653E+002 -0.61149348E+000 -0.18025761E+001
  0.17003388E+002 -0.51297297E+000 -0.61789590E+000
  0.17045500E+002 -0.36614360E+000 -0.16974657E+000
  0.16911720E+002 -0.80233496E+000 -0.11327118E+000
  0.16842448E+002 -0.10237530E+001  0.23003282E+000
  0.16942296E+002 -0.68286259E+000  0.39312854E+000
  0.16976558E+002 -0.56336411E+000  0.62049453E+000
  0.16993569E+002 -0.49275917E+000  0.55960013E+000
  0.17055506E+002  0.76313169E-001  0.92482486E+000
  0.17038869E+002 -0.64565683E-001 -0.68156854E+000
  0.16998521E+002 -0.58062028E+000 -0.17815761E+001
  0.17001449E+002 -0.51665195E+000 -0.62448947E+000
  0.17026246E+002 -0.42393109E+000 -0.20613867E+000
  0.16871880E+002 -0.92195754E+000 -0.13989176E+000
  0.16800335E+002 -0.11467887E+001  0.26014206E+000
  0.16919455E+002 -0.74908095E+000  0.43814602E+000
  0.16969676E+002 -0.57827937E+000  0.63813178E+000
  0.16997743E+002 -0.47673208E+000  0.56433719E+000
  0.17061039E+002  0.83659990E-001  0.89681243E+000
  0.17004340E+002 -0.11903228E+000 -0.72002625E+000
  0.17023191E+002 -0.54336111E+000 -0.17401412E+001
  0.17004900E+002 -0.50601214E+000 -0.61453784E+000
  0.17012005E+002 -0.46728667E+000 -0.23140007E+000
  0.16841777E+002 -0.10095248E+001 -0.15578030E+000
  0.16772013E+002 -0.12255451E+001  0.27854042E+000
  0.16906031E+002 -0.78825240E+000  0.46386950E+000
  0.16969428E+002 -0.57712615E+000  0.63754498E+000
  0.17005289E+002 -0.45445989E+000  0.56385720E+000
  0.17066529E+002  0.90891267E-001  0.87066225E+000
  0.16929988E+002 -0.24379959E+000 -0.78542033E+000
  0.17043180E+002 -0.50766486E+000 -0.16257689E+001
  0.17014959E+002 -0.47915903E+000 -0.58190421E+000
  0.17007211E+002 -0.48597150E+000 -0.24230135E+000
  0.16831616E+002 -0.10388802E+001 -0.17008616E+000
  0.16768127E+002 -0.12337036E+001  0.28279211E+000
  0.16907256E+002 -0.78811414E+000  0.46495476E+000
  0.16976529E+002 -0.55824887E+000  0.61607101E+000
  0.17015367E+002 -0.42757776E+000  0.56249664E+000
  0.17072097E+002  0.98261529E-001  0.84603229E+000
  0.17142343E+002  0.10051177E+000 -0.51347318E+000
  0.17066210E+002 -0.46361535E+000 -0.14726419E+001
  0.17030929E+002 -0.43885367E+000 -0.52966546E+000
  0.17016270E+002 -0.47079141E+000 -0.23066618E+000
  0.16849390E+002 -0.99226476E+000 -0.16925412E+000
  0.16796237E+002 -0.11553509E+001  0.26606748E+000
  0.16926764E+002 -0.74030462E+000  0.43127042E+000
  0.16991589E+002 -0.52093495E+000  0.57083667E+000
  0.17032558E+002 -0.39682378E+000  0.55205829E+000
  0.17077529E+002  0.10564976E+000  0.82295216E+000
  0.17146277E+002  0.11146095E+000 -0.51270803E+000
  0.17084422E+002 -0.41640217E+000 -0.12555085E+001
  0.17053023E+002 -0.38546482E+000 -0.46243217E+000
  0.17041719E+002 -0.41754242E+000 -0.19754266E+000
  0.16895883E+002 -0.87176378E+000 -0.15014575E+000
  0.16854616E+002 -0.99648556E+000  0.22708426E+000
  0.16967713E+002 -0.64327638E+000  0.37004810E+000
  0.17013751E+002 -0.46812456E+000  0.51108024E+000
  0.17048182E+002 -0.36083605E+000  0.51841212E+000
  0.17101577E+002  0.14753030E+000  0.79779440E+000
  0.17260410E+002  0.34057949E+000 -0.10890669E+001
  0.17091809E+002 -0.38532305E+000 -0.10456206E+001
  0.17080236E+002 -0.32183691E+000 -0.38305683E+000
  0.17082467E+002 -0.33009530E+000 -0.14305827E+000
  0.16962211E+002 -0.70172209E+000 -0.10802621E+000
  0.16934931E+002 -0.78478098E+000  0.16797467E+000
  0.17026051E+002 -0.50563668E+000  0.28180781E+000
  0.17041622E+002 -0.40343523E+000  0.44123054E+000
  0.17065264E+002 -0.32245300E+000  0.47473267E+000
  0.17114057E+002  0.16769680E+000  0.77640623E+000
  0.17161441E+002  0.20020853E+000 -0.10472341E+001
  0.17104849E+002 -0.32955489E+000 -0.75657402E+000
  0.17111125E+002 -0.25171573E+000 -0.29585669E+000
  0.17133770E+002 -0.22008928E+000 -0.71346193E-001
  0.17035362E+002 -0.51838209E+000 -0.62198747E-001
  0.17021974E+002 -0.55809992E+000  0.10054154E+000
  0.17095260E+002 -0.34423221E+000  0.17495880E+000
  0.17074356E+002 -0.32884195E+000  0.35089045E+000
  0.17083501E+002 -0.28180623E+000  0.41664340E+000
  0.17116818E+002  0.16964752E+000  0.76190070E+000
  0.17137735E+002  0.16786828E+000 -0.99974036E+000
  0.17118242E+002 -0.27582372E+000 -0.52767915E+000
  0.17143316E+002 -0.17963226E+000 -0.20574816E+000
  0.17183828E+002 -0.11365381E+000 -0.35247822E-002
  0.17109510E+002 -0.33899227E+000 -0.18450071E-001
  0.17106377E+002 -0.34793655E+000  0.38006616E-001
  0.17163119E+002 -0.19023649E+000  0.72605215E-001
  0.17109462E+002 -0.25065098E+000  0.25683783E+000
  0.17102236E+002 -0.24075167E+000  0.34350133E+000
  0.17153968E+002  0.23666240E+000  0.75091951E+000
  0.17166329E+002  0.21024674E+000 -0.94382985E+000
  0.17132002E+002 -0.22052048E+000 -0.28475922E+000
  0.17175497E+002 -0.11060000E+000 -0.13974660E+000
  0.17236161E+002 -0.45866507E-002  0.65182575E-001
  0.17185234E+002 -0.16304385E+000  0.26446414E-001
  0.17189285E+002 -0.14904771E+000 -0.22020321E-001
  0.17229988E+002 -0.33059718E-001 -0.37778848E-001
  0.17145458E+002 -0.17213285E+000  0.16590163E+000
  0.17120394E+002 -0.20074907E+000  0.27167144E+000
  0.17147108E+002  0.22028033E+000  0.72816768E+000
  0.17389077E+002  0.70831973E+000 -0.10985004E+001
  0.17146801E+002 -0.17234761E+000 -0.47921649E-001
  0.17207168E+002 -0.44963592E-001 -0.60730062E-001
  0.17280205E+002  0.84130624E-001  0.12174678E+000
  0.17251081E+002 -0.18586838E-001  0.60525078E-001
  0.17261448E+002  0.10517106E-001 -0.66189491E-001
  0.17285062E+002  0.82896508E-001 -0.11559977E+000
  0.17179291E+002 -0.10163693E+000  0.80246931E-001
  0.17138733E+002 -0.16231013E+000  0.20583791E+000
  0.17143943E+002  0.21099888E+000  0.70738566E+000
  0.17247280E+002  0.47126332E+000 -0.21467138E+001
  0.17167797E+002 -0.11838917E+000  0.29364482E-001
  0.17235231E+002  0.11711058E-001  0.13823224E-001
  0.17314400E+002  0.14453288E+000  0.16409654E+000
  0.17301994E+002  0.87342228E-001  0.84898636E-001
  0.17316425E+002  0.12366469E+000 -0.94977024E-001
  0.17325606E+002  0.16377792E+000 -0.17299772E+000
  0.17209481E+002 -0.40036296E-001  0.78663768E-002
  0.17156303E+002 -0.12559902E+000  0.13573379E+000
  0.17142294E+002  0.20478758E+000  0.68955491E+000
  0.17210042E+002  0.38668910E+000 -0.20050256E+001
  0.17189437E+002 -0.70507061E-001  0.10067601E+000
  0.17258982E+002  0.58557458E-001  0.75847265E-001
  0.17334683E+002  0.18265881E+000  0.18693701E+000
  0.17335684E+002  0.15437367E+000  0.93934807E-001
  0.17351443E+002  0.19220915E+000 -0.10700241E+000
  0.17350803E+002  0.21162179E+000 -0.20567833E+000
  0.17235052E+002  0.11110009E-001 -0.55496508E-001
  0.17173056E+002 -0.91722261E-001  0.73979026E-001
  0.17145565E+002  0.19931662E+000  0.68862280E+000
