# vtk DataFile Version 2.0
BldPointCP.BldC
ASCII
 
DATASET POLYDATA
POINTS 9 double
  0.66205839E+001 -0.93688744E+001  0.10634132E+003
  0.16192064E+002 -0.22986352E+002  0.94564159E+002
  0.23845505E+002 -0.33852805E+002  0.82343182E+002
  0.29022293E+002 -0.41192244E+002  0.70086248E+002
  0.30689949E+002 -0.43554405E+002  0.58093972E+002
  0.29018295E+002 -0.41180281E+002  0.46104513E+002
  0.23841662E+002 -0.33835257E+002  0.33847749E+002
  0.16187997E+002 -0.22975417E+002  0.21615879E+002
  0.66014681E+001 -0.93696655E+001  0.98348889E+001
  
POINT_DATA 9
SCALARS Gamma_LL double
LOOKUP_TABLE default
  0.12940546E+002
  0.26383846E+002
  0.18957153E+002
  0.22682258E+002
  0.26751777E+002
  0.25299876E+002
  0.23305827E+002
  0.28582989E+002
  0.78166061E+001
VECTORS Vind_CP double
 -0.29365862E-001 -0.32901280E-001 -0.62946612E-001
 -0.20468175E-001  0.28519401E-001 -0.51109085E-001
 -0.22280586E-001  0.24362112E-001 -0.23136832E-001
 -0.47969445E-001  0.54857702E-001 -0.23279113E-001
 -0.75017070E-001  0.90049118E-001  0.55021842E-003
 -0.56466637E-001  0.65843076E-001  0.30254931E-001
 -0.32418972E-001  0.38214290E-001  0.36718740E-001
 -0.33662762E-001  0.42251728E-001  0.60816246E-001
 -0.23631234E-001 -0.29783589E-001  0.19966314E-001
VECTORS Vtot_CP double
 -0.63660882E+000 -0.12068974E+002  0.44294841E+000
 -0.24911292E+002 -0.28464983E+002  0.18130831E+000
 -0.44746822E+002 -0.41559184E+002 -0.64791612E+000
 -0.57790700E+002 -0.51491010E+002 -0.49292401E+000
 -0.61791149E+002 -0.55258879E+002 -0.38293900E-001
 -0.57633000E+002 -0.52116725E+002  0.29320578E+000
 -0.44483886E+002 -0.42476678E+002  0.45584197E+000
 -0.24589453E+002 -0.28941583E+002  0.77012890E-001
  0.23931931E+000 -0.11968372E+002 -0.15753533E+000
VECTORS Vstr_CP double
  0.17807243E+002  0.12036073E+002 -0.50589502E+000
  0.42090824E+002  0.28493503E+002 -0.23241740E+000
  0.61924542E+002  0.41583546E+002  0.62477928E+000
  0.74942730E+002  0.51545868E+002  0.46964489E+000
  0.78916132E+002  0.55348928E+002  0.38844118E-001
  0.74776534E+002  0.52182568E+002 -0.26295085E+000
  0.61651468E+002  0.42514892E+002 -0.41912323E+000
  0.41755790E+002  0.28983835E+002 -0.16196644E-001
  0.16937049E+002  0.11938589E+002  0.17750164E+000
VECTORS Vwnd_CP double
  0.17200000E+002  0.00000000E+000  0.00000000E+000
  0.17200000E+002  0.00000000E+000  0.00000000E+000
  0.17200000E+002  0.00000000E+000  0.00000000E+000
  0.17200000E+002  0.00000000E+000  0.00000000E+000
  0.17200000E+002  0.00000000E+000  0.00000000E+000
  0.17200000E+002  0.00000000E+000  0.00000000E+000
  0.17200000E+002  0.00000000E+000  0.00000000E+000
  0.17200000E+002  0.00000000E+000  0.00000000E+000
  0.17200000E+002  0.00000000E+000  0.00000000E+000
VECTORS Tangent double
 -0.63779437E+000 -0.77020662E+000  0.32592613E-003
 -0.81725846E+000 -0.57627082E+000  0.74310167E-003
 -0.81840244E+000 -0.57464542E+000  0.28212483E-003
 -0.81769888E+000 -0.57564619E+000 -0.33037637E-004
 -0.81676970E+000 -0.57696380E+000 -0.13760709E-003
 -0.81743949E+000 -0.57601440E+000 -0.31012940E-003
 -0.81794518E+000 -0.57529616E+000 -0.10595677E-003
 -0.81727245E+000 -0.57625146E+000  0.30305519E-004
 -0.81718100E+000 -0.57638035E+000 -0.94844459E-003
VECTORS Normal double
  0.40559219E+000 -0.33550386E+000  0.85025416E+000
  0.37121207E+000 -0.52546008E+000  0.76556731E+000
  0.40783605E+000 -0.58048872E+000  0.70477132E+000
  0.51620871E+000 -0.73329401E+000  0.44250250E+000
  0.57696377E+000 -0.81676952E+000 -0.59567231E-003
  0.51644734E+000 -0.73266741E+000 -0.44326134E+000
  0.40832146E+000 -0.58041394E+000 -0.70455180E+000
  0.37114249E+000 -0.52641551E+000 -0.76494442E+000
  0.29587019E+000 -0.41806576E+000 -0.85888407E+000
VECTORS Orth double
  0.65476203E+000 -0.54241951E+000 -0.52637226E+000
  0.44078363E+000 -0.62594220E+000 -0.64335538E+000
  0.40482984E+000 -0.57690163E+000 -0.70943450E+000
  0.25474910E+000 -0.36181674E+000 -0.89676727E+000
 -0.23128808E-003  0.56592140E-003 -0.99999981E+000
 -0.25509769E+000  0.36249949E+000 -0.89639237E+000
 -0.40526445E+000  0.57632801E+000 -0.70965255E+000
 -0.44081629E+000  0.62515675E+000 -0.64409630E+000
 -0.49464739E+000  0.70214436E+000 -0.51216916E+000
