# vtk DataFile Version 2.0
BldPointCP.BldC
ASCII
 
DATASET POLYDATA
POINTS 9 double
  0.78534981E+001 -0.84429922E+001  0.10628848E+003
  0.19024632E+002 -0.20804489E+002  0.94520281E+002
  0.28007163E+002 -0.30688230E+002  0.82377494E+002
  0.34050419E+002 -0.37283395E+002  0.70118980E+002
  0.35964486E+002 -0.39330238E+002  0.58091153E+002
  0.34022132E+002 -0.37172867E+002  0.46079895E+002
  0.27972452E+002 -0.30570149E+002  0.33809907E+002
  0.18979145E+002 -0.20758170E+002  0.21603611E+002
  0.77321279E+001 -0.84603802E+001  0.98417516E+001
  
POINT_DATA 9
SCALARS Gamma_LL double
LOOKUP_TABLE default
  0.53124638E+002
  0.99545566E+002
  0.72503410E+002
  0.85940782E+002
  0.10101857E+003
  0.99434899E+002
  0.89869162E+002
  0.10439297E+003
  0.30010144E+002
VECTORS Vind_CP double
 -0.12617908E+000 -0.21509332E+000 -0.35928734E+000
 -0.12997471E+000  0.12814947E+000 -0.25206902E+000
 -0.17559651E+000  0.16114939E+000 -0.14649418E+000
 -0.42449676E+000  0.36133192E+000 -0.14331026E+000
 -0.63011859E+000  0.54937655E+000  0.11324980E-001
 -0.50622012E+000  0.43943734E+000  0.20578911E+000
 -0.25213842E+000  0.23575522E+000  0.23132291E+000
 -0.20757332E+000  0.19091795E+000  0.28585625E+000
 -0.77063952E-001 -0.61363305E-001  0.51195551E-001
VECTORS Vtot_CP double
 -0.27317634E+000 -0.14652259E+002  0.53911982E+000
 -0.22041935E+002 -0.33538651E+002  0.66103357E+000
 -0.40089350E+002 -0.48493354E+002 -0.47165949E+000
 -0.51672575E+002 -0.59830075E+002 -0.50134192E+000
 -0.54906529E+002 -0.64647332E+002  0.19499622E+000
 -0.51164931E+002 -0.61554125E+002  0.71322912E+000
 -0.39269425E+002 -0.50303298E+002  0.95466508E+000
 -0.21004281E+002 -0.34039074E+002  0.58018471E+000
  0.17888860E+001 -0.14073667E+002 -0.17726302E-003
VECTORS Vstr_CP double
  0.17346997E+002  0.14437165E+002 -0.89840716E+000
  0.39111961E+002  0.33666801E+002 -0.91310259E+000
  0.57113753E+002  0.48654504E+002  0.32516531E+000
  0.68448078E+002  0.60191407E+002  0.35803166E+000
  0.71476410E+002  0.65196709E+002 -0.18367124E+000
  0.67858711E+002  0.61993562E+002 -0.50744001E+000
  0.56217287E+002  0.50539053E+002 -0.72334217E+000
  0.37996708E+002  0.34229992E+002 -0.29432846E+000
  0.15334050E+002  0.14012303E+002  0.51372814E-001
VECTORS Vwnd_CP double
  0.17200000E+002  0.00000000E+000  0.00000000E+000
  0.17200000E+002  0.00000000E+000  0.00000000E+000
  0.17200000E+002  0.00000000E+000  0.00000000E+000
  0.17200000E+002  0.00000000E+000  0.00000000E+000
  0.17200000E+002  0.00000000E+000  0.00000000E+000
  0.17200000E+002  0.00000000E+000  0.00000000E+000
  0.17200000E+002  0.00000000E+000  0.00000000E+000
  0.17200000E+002  0.00000000E+000  0.00000000E+000
  0.17200000E+002  0.00000000E+000  0.00000000E+000
VECTORS Tangent double
 -0.53059966E+000 -0.84762254E+000  0.14143096E-003
 -0.73592502E+000 -0.67705189E+000  0.38868659E-002
 -0.74481042E+000 -0.66727331E+000  0.19433474E-002
 -0.74279450E+000 -0.66951901E+000 -0.78315482E-003
 -0.73794920E+000 -0.67485620E+000 -0.31155831E-003
 -0.73962366E+000 -0.67302068E+000  0.58903073E-004
 -0.74085503E+000 -0.67166490E+000  0.29533200E-003
 -0.73785687E+000 -0.67495717E+000  0.26202271E-003
 -0.73743479E+000 -0.67540685E+000 -0.39385342E-002
VECTORS Normal double
  0.45032448E+000 -0.28175536E+000  0.84724364E+000
  0.43449736E+000 -0.46786083E+000  0.76962217E+000
  0.47213375E+000 -0.52493314E+000  0.70819130E+000
  0.60306607E+000 -0.66957578E+000  0.43356614E+000
  0.67484676E+000 -0.73793627E+000 -0.56483852E-002
  0.60485726E+000 -0.66475307E+000 -0.43846443E+000
  0.47623472E+000 -0.52560299E+000 -0.70494112E+000
  0.43287749E+000 -0.47351541E+000 -0.76707251E+000
  0.34867928E+000 -0.37569418E+000 -0.85864815E+000
VECTORS Orth double
  0.71810296E+000 -0.44961088E+000 -0.53120448E+000
  0.51925563E+000 -0.56807304E+000 -0.63848775E+000
  0.47153702E+000 -0.52838577E+000 -0.70601792E+000
  0.29080515E+000 -0.32157825E+000 -0.90112141E+000
 -0.35819376E-002  0.43784755E-002 -0.99998400E+000
 -0.29513478E+000  0.32426304E+000 -0.89874854E+000
 -0.47363943E+000  0.52211853E+000 -0.70926577E+000
 -0.51786516E+000  0.56587630E+000 -0.64156036E+000
 -0.57845716E+000  0.63457031E+000 -0.51255034E+000
