<?xml version="1.0"?>
<VTKFile type="PolyData" version="0.1" byte_order="LittleEndian">
  <PolyData>
    <Piece NumberOfPoints="     10" NumberOfVerts="  0" NumberOfLines="      9"
           NumberOfStrips="  0" NumberOfPolys="      0">
      <Points>
        <DataArray type="Float32" NumberOfComponents="3" format="ascii">
                       0.07325                      -0.06763                      15.12071
                       1.79966                      -1.64582                      15.12900
                       3.52693                      -3.22308                      15.13717
                       5.25489                      -4.79958                      15.14434
                       6.98352                      -6.37535                      15.15006
                       8.70946                      -7.95416                      15.15822
                      10.43850                      -9.52944                      15.15881
                      12.16763                     -11.10460                      15.15734
                      13.89669                     -12.67979                      15.15366
                      15.62554                     -14.25519                      15.14769
        </DataArray>
      </Points>
      <PointData>
        <DataArray type="Float32" Name="TranslationalVelocity" NumberOfComponents="3" format="ascii">
                       0.12592                       0.12949                       0.00052
                       2.97766                       3.24854                       0.02506
                       5.83267                       6.37455                       0.04745
                       8.69056                       9.50640                       0.06636
                      11.55067                      12.64335                       0.08043
                      14.42065                      15.77949                       0.08807
                      17.28508                      18.92284                       0.08754
                      20.15069                      22.06794                       0.07777
                      23.01710                      25.21376                       0.05711
                      25.88389                      28.35933                       0.02379
        </DataArray>
        <DataArray type="Float32" Name="RotationalVelocity" NumberOfComponents="3" format="ascii">
                      -0.01227                      -0.00331                       1.80456
                      -0.01242                      -0.00249                       1.80747
                      -0.01225                      -0.00127                       1.81017
                      -0.01176                       0.00031                       1.81251
                      -0.01094                       0.00225                       1.81449
                      -0.00832                       0.00721                       1.81739
                      -0.00649                       0.01026                       1.81830
                      -0.00430                       0.01370                       1.81885
                      -0.00164                       0.01766                       1.81904
                       0.00140                       0.02201                       1.81888
        </DataArray>
        <DataArray type="Float32" Name="TranslationalAcceleration" NumberOfComponents="3" format="ascii">
                       0.32048                      -0.03782                       0.04623
                      -0.43360                       0.69670                      -0.18163
                      -0.94101                       1.22361                      -0.39369
                      -1.44425                       1.75786                      -0.55567
                      -1.94427                       2.29552                      -0.66486
                       2.79043                      -1.81720                      -0.77820
                       2.31283                      -1.28337                      -0.85902
                       1.84044                      -0.74953                      -0.86470
                       1.35891                      -0.20914                      -0.84806
                       0.87988                       0.33526                      -0.88058
        </DataArray>
        <DataArray type="Float32" Name="OrientationX" NumberOfComponents="3" format="ascii">
                      -0.00003                       0.00008                       1.00000
                       0.00012                      -0.00010                       1.00000
                       0.00030                      -0.00029                       1.00000
                       0.00049                      -0.00048                       1.00000
                       0.00072                      -0.00069                       1.00000
                       0.00018                       0.00032                       1.00000
                       0.00032                       0.00061                       1.00000
                       0.00053                       0.00080                       1.00000
                       0.00079                       0.00089                       1.00000
                       0.00003                       0.00005                       1.00000
        </DataArray>
        <DataArray type="Float32" Name="OrientationY" NumberOfComponents="3" format="ascii">
                      -0.67620                      -0.73672                       0.00004
                      -0.67551                      -0.73735                       0.00001
                      -0.67479                      -0.73801                      -0.00001
                      -0.67405                      -0.73869                      -0.00002
                      -0.67325                      -0.73942                      -0.00002
                      -0.67153                      -0.74098                       0.00036
                      -0.67162                      -0.74089                       0.00067
                      -0.67187                      -0.74067                       0.00095
                      -0.67226                      -0.74032                       0.00119
                      -0.67159                      -0.74093                       0.00006
        </DataArray>
        <DataArray type="Float32" Name="OrientationZ" NumberOfComponents="3" format="ascii">
                       0.73672                      -0.67620                       0.00008
                       0.73735                      -0.67551                      -0.00015
                       0.73801                      -0.67479                      -0.00041
                       0.73869                      -0.67405                      -0.00069
                       0.73942                      -0.67325                      -0.00100
                       0.74098                      -0.67153                       0.00008
                       0.74089                      -0.67162                       0.00017
                       0.74067                      -0.67187                       0.00015
                       0.74032                      -0.67226                       0.00002
                       0.74093                      -0.67159                       0.00001
        </DataArray>
      </PointData>
      <Lines>
        <DataArray type="Int32" Name="connectivity" format="ascii">
      0      1
      1      2
      2      3
      3      4
      4      5
      5      6
      6      7
      7      8
      8      9
        </DataArray>
        <DataArray type="Int32" Name="offsets" format="ascii">
      2
      4
      6
      8
     10
     12
     14
     16
     18
        </DataArray>
      </Lines>
    </Piece>
  </PolyData>
</VTKFile>
