# vtk DataFile Version 2.0
BldPointCP.BldA
ASCII
 
DATASET POLYDATA
POINTS 9 double
 -0.11451334E+002 -0.41260816E+000  0.10635767E+003
 -0.28074496E+002 -0.10127194E+001  0.94574056E+002
 -0.41332895E+002 -0.14922512E+001  0.82329997E+002
 -0.50310091E+002 -0.18178350E+001  0.70075305E+002
 -0.53212729E+002 -0.19233820E+001  0.58093870E+002
 -0.50309695E+002 -0.18186871E+001  0.46112637E+002
 -0.41332393E+002 -0.14936510E+001  0.33857793E+002
 -0.28074913E+002 -0.10135095E+001  0.21613134E+002
 -0.11453890E+002 -0.41324867E+000  0.98274120E+001
  
POINT_DATA 9
SCALARS Gamma_LL double
LOOKUP_TABLE default
 -0.20358333E-002
 -0.50129804E-001
 -0.43769850E-001
 -0.45116199E-001
 -0.47341231E-001
 -0.45934438E-001
 -0.45782683E-001
 -0.51804677E-001
 -0.27059359E-001
VECTORS Vind_CP double
 -0.28601265E-005 -0.29048140E-004 -0.18241666E-004
 -0.10621019E-003  0.14654146E-005  0.10194285E-003
 -0.94148571E-004 -0.82077513E-006  0.66512238E-004
 -0.13983492E-003 -0.21303915E-005  0.48085865E-004
 -0.18568778E-003 -0.27735556E-005 -0.32386221E-006
 -0.14431272E-003 -0.30277393E-005 -0.50838181E-004
 -0.97758340E-004 -0.17933717E-005 -0.71194927E-004
 -0.10755339E-003 -0.22422081E-006 -0.10663559E-003
 -0.39323325E-004 -0.30749540E-005 -0.17130627E-004
VECTORS Vtot_CP double
  0.16133302E+002  0.20632270E+002 -0.29582958E+000
  0.15209878E+002  0.50825608E+002 -0.57571950E+000
  0.14187878E+002  0.74957989E+002 -0.47236775E+000
  0.13398024E+002  0.91252514E+002 -0.32433314E+000
  0.13138742E+002  0.96538976E+002 -0.31048705E+000
  0.13374144E+002  0.91316493E+002 -0.30592930E+000
  0.14205701E+002  0.75062156E+002 -0.11961024E+000
  0.15325989E+002  0.50891960E+002  0.45359488E-001
  0.16454282E+002  0.20682779E+002  0.16151426E-001
VECTORS Vstr_CP double
  0.10666953E+001 -0.20632299E+002  0.29581133E+000
  0.19900158E+001 -0.50825606E+002  0.57582145E+000
  0.30120278E+001 -0.74957990E+002  0.47243426E+000
  0.38018360E+001 -0.91252517E+002  0.32438122E+000
  0.40610723E+001 -0.96538979E+002  0.31048672E+000
  0.38257115E+001 -0.91316496E+002  0.30587847E+000
  0.29942015E+001 -0.75062158E+002  0.11953905E+000
  0.18739037E+001 -0.50891961E+002 -0.45466123E-001
  0.74567884E+000 -0.20682782E+002 -0.16168557E-001
VECTORS Vwnd_CP double
  0.17200000E+002  0.00000000E+000  0.00000000E+000
  0.17200000E+002  0.00000000E+000  0.00000000E+000
  0.17200000E+002  0.00000000E+000  0.00000000E+000
  0.17200000E+002  0.00000000E+000  0.00000000E+000
  0.17200000E+002  0.00000000E+000  0.00000000E+000
  0.17200000E+002  0.00000000E+000  0.00000000E+000
  0.17200000E+002  0.00000000E+000  0.00000000E+000
  0.17200000E+002  0.00000000E+000  0.00000000E+000
  0.17200000E+002  0.00000000E+000  0.00000000E+000
VECTORS Tangent double
 -0.73902856E+000  0.67367409E+000  0.28257529E-004
 -0.37010294E-001  0.99931481E+000  0.38295889E-003
 -0.37309689E-001  0.99930362E+000  0.52104579E-003
 -0.36817855E-001  0.99932196E+000  0.24717476E-003
 -0.36482678E-001  0.99933428E+000 -0.11599876E-003
 -0.36042205E-001  0.99935013E+000 -0.51823151E-003
 -0.35737316E-001  0.99936116E+000 -0.33796987E-003
 -0.35853369E-001  0.99935706E+000 -0.35712268E-004
 -0.36003244E-001  0.99935167E+000 -0.46019055E-005
VECTORS Normal double
 -0.43650077E+000 -0.47887853E+000  0.76167082E+000
 -0.64481414E+000 -0.24173889E-001  0.76395703E+000
 -0.70976590E+000 -0.26866631E-001  0.70392510E+000
 -0.89537480E+000 -0.33097987E-001  0.44408163E+000
 -0.99933429E+000 -0.36482679E-001 -0.64440437E-005
 -0.89537236E+000 -0.32522491E-001 -0.44412907E+000
 -0.70984746E+000 -0.25622305E-001 -0.70388925E+000
 -0.64489860E+000 -0.23163962E-001 -0.76391703E+000
 -0.51143474E+000 -0.18429211E-001 -0.85912448E+000
VECTORS Orth double
 -0.51313143E+000 -0.56288416E+000 -0.64796417E+000
 -0.76344283E+000 -0.28027337E-001 -0.64526701E+000
 -0.70344890E+000 -0.25893406E-001 -0.71027402E+000
 -0.44378871E+000 -0.16128819E-001 -0.89598630E+000
  0.10671699E-004 -0.11568644E-003 -0.99999999E+000
  0.44385730E+000  0.15543381E-001 -0.89596267E+000
  0.70344824E+000  0.24915205E-001 -0.71030966E+000
  0.76342670E+000  0.27365968E-001 -0.64531448E+000
  0.85856757E+000  0.30928915E-001 -0.51176667E+000
