# vtk DataFile Version 2.0

ASCII
 
DATASET POLYDATA
POINTS 30 double
  0.84663596E-003  0.13956960E-003  0.11318284E+003
 -0.20547703E+002 -0.37017368E+000  0.10094118E+003
 -0.35038636E+002 -0.63141770E+000  0.88698753E+002
 -0.47174757E+002 -0.85045075E+000  0.76455696E+002
 -0.53242804E+002 -0.96021794E+000  0.64213100E+002
 -0.53242745E+002 -0.96018585E+000  0.51970677E+002
 -0.47174507E+002 -0.85090178E+000  0.39728178E+002
 -0.35038476E+002 -0.63168568E+000  0.27485012E+002
 -0.20547895E+002 -0.37030769E+000  0.15242444E+002
  0.15840999E-004  0.30469958E-005  0.30000098E+001
 -0.44984219E+001 -0.80993894E-001  0.11318273E+003
 -0.20627902E+002  0.40413479E+001  0.10094144E+003
 -0.35095700E+002  0.24649256E+001  0.88699313E+002
 -0.47219736E+002  0.16046064E+001  0.76455982E+002
 -0.53283837E+002  0.12951849E+001  0.64213178E+002
 -0.53284453E+002  0.13390719E+001  0.51970446E+002
 -0.47221167E+002  0.17489713E+001  0.39727666E+002
 -0.35099954E+002  0.27933811E+001  0.27484937E+002
 -0.20628870E+002  0.41289637E+001  0.15242437E+002
 -0.81095651E-001  0.44992720E+001  0.30000040E+001
 -0.43280000E+001  0.82663659E-015  0.11318291E+003
 -0.20379200E+002  0.44122505E+001  0.10094036E+003
 -0.34872324E+002  0.30968692E+001  0.88697816E+002
 -0.47011144E+002  0.24554692E+001  0.76455271E+002
 -0.53080554E+002  0.22557761E+001  0.64212725E+002
 -0.53080554E+002  0.22996360E+001  0.51970180E+002
 -0.47011144E+002  0.26002918E+001  0.39727634E+002
 -0.34872324E+002  0.34256185E+001  0.27485089E+002
 -0.20379200E+002  0.45000000E+001  0.15242543E+002
  0.17200000E+000  0.45000000E+001  0.29999979E+001
  
POLYGONS 18 90
      4      0      1     11     10
      4      1      2     12     11
      4      2      3     13     12
      4      3      4     14     13
      4      4      5     15     14
      4      5      6     16     15
      4      6      7     17     16
      4      7      8     18     17
      4      8      9     19     18
      4     10     11     21     20
      4     11     12     22     21
      4     12     13     23     22
      4     13     14     24     23
      4     14     15     25     24
      4     15     16     26     25
      4     16     17     27     26
      4     17     18     28     27
      4     18     19     29     28
  
CELL_DATA 18
SCALARS Gamma double
LOOKUP_TABLE default
 -0.00000000E+000
 -0.00000000E+000
 -0.00000000E+000
 -0.00000000E+000
 -0.00000000E+000
 -0.00000000E+000
 -0.00000000E+000
 -0.00000000E+000
 -0.00000000E+000
 -0.00000000E+000
 -0.00000000E+000
 -0.00000000E+000
 -0.00000000E+000
 -0.00000000E+000
 -0.00000000E+000
 -0.00000000E+000
 -0.00000000E+000
 -0.00000000E+000
POINT_DATA 30
VECTORS Uconv double
  0.00000000E+000  0.00000000E+000  0.00000000E+000
  0.00000000E+000  0.00000000E+000  0.00000000E+000
  0.00000000E+000  0.00000000E+000  0.00000000E+000
  0.00000000E+000  0.00000000E+000  0.00000000E+000
  0.00000000E+000  0.00000000E+000  0.00000000E+000
  0.00000000E+000  0.00000000E+000  0.00000000E+000
  0.00000000E+000  0.00000000E+000  0.00000000E+000
  0.00000000E+000  0.00000000E+000  0.00000000E+000
  0.00000000E+000  0.00000000E+000  0.00000000E+000
  0.00000000E+000  0.00000000E+000  0.00000000E+000
  0.00000000E+000  0.00000000E+000  0.00000000E+000
  0.00000000E+000  0.00000000E+000  0.00000000E+000
  0.00000000E+000  0.00000000E+000  0.00000000E+000
  0.00000000E+000  0.00000000E+000  0.00000000E+000
  0.00000000E+000  0.00000000E+000  0.00000000E+000
  0.00000000E+000  0.00000000E+000  0.00000000E+000
  0.00000000E+000  0.00000000E+000  0.00000000E+000
  0.00000000E+000  0.00000000E+000  0.00000000E+000
  0.00000000E+000  0.00000000E+000  0.00000000E+000
  0.00000000E+000  0.00000000E+000  0.00000000E+000
  0.17200000E+002 -0.00000000E+000  0.00000000E+000
  0.17200000E+002 -0.00000000E+000  0.00000000E+000
  0.17200000E+002 -0.00000000E+000  0.00000000E+000
  0.17200000E+002 -0.00000000E+000  0.00000000E+000
  0.17200000E+002 -0.00000000E+000  0.00000000E+000
  0.17200000E+002 -0.00000000E+000  0.00000000E+000
  0.17200000E+002 -0.00000000E+000  0.00000000E+000
  0.17200000E+002 -0.00000000E+000  0.00000000E+000
  0.17200000E+002 -0.00000000E+000  0.00000000E+000
  0.17200000E+002 -0.00000000E+000  0.00000000E+000
