# vtk DataFile Version 2.0
BldPointCP.BldA
ASCII
 
DATASET POLYDATA
POINTS 9 double
 -0.11418188E+002 -0.82453264E+000  0.10636851E+003
 -0.28015579E+002 -0.20282206E+001  0.94594854E+002
 -0.41242733E+002 -0.29920354E+001  0.82346765E+002
 -0.50194602E+002 -0.36474736E+001  0.70086959E+002
 -0.53090361E+002 -0.38607083E+001  0.58105146E+002
 -0.50194983E+002 -0.36508584E+001  0.46123897E+002
 -0.41243470E+002 -0.29963757E+001  0.33862756E+002
 -0.28019581E+002 -0.20306231E+001  0.21611929E+002
 -0.11431503E+002 -0.82736429E+000  0.98270217E+001
  
POINT_DATA 9
SCALARS Gamma_LL double
LOOKUP_TABLE default
 -0.81856091E+000
 -0.21541708E+002
 -0.18744617E+002
 -0.18631326E+002
 -0.19216129E+002
 -0.18418026E+002
 -0.18723285E+002
 -0.21655029E+002
 -0.11135103E+002
VECTORS Vind_CP double
  0.32948083E-002 -0.19164201E-001  0.17907589E-002
 -0.44402428E-001  0.73762508E-004  0.44598179E-001
 -0.41971508E-001 -0.14599776E-002  0.30150578E-001
 -0.60535454E-001 -0.27538980E-002  0.20895737E-001
 -0.78585062E-001 -0.36902307E-002  0.10054428E-004
 -0.60134572E-001 -0.32023887E-002 -0.20716311E-001
 -0.41535903E-001 -0.19279805E-002 -0.30111706E-001
 -0.45981843E-001 -0.13428751E-002 -0.45638152E-001
 -0.17451502E-001 -0.15292575E-002 -0.77003701E-002
VECTORS Vtot_CP double
  0.14974146E+002  0.20567613E+002 -0.74697644E+000
  0.13092002E+002  0.50915169E+002 -0.13901721E+001
  0.10996375E+002  0.75239004E+002 -0.11677200E+001
  0.93865182E+001  0.91771744E+002 -0.83818951E+000
  0.89036923E+001  0.97197758E+002 -0.81266029E+000
  0.94485412E+001  0.91896307E+002 -0.76621437E+000
  0.11204449E+002  0.75391225E+002 -0.33950853E+000
  0.13442387E+002  0.51008987E+002  0.61587103E-002
  0.15691477E+002  0.20708998E+002  0.60965028E-002
VECTORS Vstr_CP double
  0.22291487E+001 -0.20586777E+002  0.74876720E+000
  0.40635955E+001 -0.50915095E+002  0.14347703E+001
  0.61616539E+001 -0.75240464E+002  0.11978706E+001
  0.77529463E+001 -0.91774498E+002  0.85908524E+000
  0.82177226E+001 -0.97201448E+002  0.81267034E+000
  0.76913242E+001 -0.91899509E+002  0.74549806E+000
  0.59540152E+001 -0.75393153E+002  0.30939682E+000
  0.37116307E+001 -0.51010330E+002 -0.51796862E-001
  0.14910717E+001 -0.20710527E+002 -0.13796873E-001
VECTORS Vwnd_CP double
  0.17200000E+002  0.00000000E+000  0.00000000E+000
  0.17200000E+002  0.00000000E+000  0.00000000E+000
  0.17200000E+002  0.00000000E+000  0.00000000E+000
  0.17200000E+002  0.00000000E+000  0.00000000E+000
  0.17200000E+002  0.00000000E+000  0.00000000E+000
  0.17200000E+002  0.00000000E+000  0.00000000E+000
  0.17200000E+002  0.00000000E+000  0.00000000E+000
  0.17200000E+002  0.00000000E+000  0.00000000E+000
  0.17200000E+002  0.00000000E+000  0.00000000E+000
VECTORS Tangent double
 -0.76323652E+000  0.64611900E+000 -0.49605827E-003
 -0.74456414E-001  0.99722396E+000  0.78264486E-003
 -0.74874939E-001  0.99719242E+000  0.10068639E-002
 -0.73352996E-001  0.99730597E+000  0.36958105E-003
 -0.72464989E-001  0.99737093E+000 -0.23176109E-003
 -0.71521022E-001  0.99743859E+000 -0.99777847E-003
 -0.70975625E-001  0.99747784E+000 -0.64826785E-003
 -0.71394332E-001  0.99744817E+000 -0.32886967E-004
 -0.71878647E-001  0.99741338E+000  0.13245639E-004
VECTORS Normal double
 -0.41835777E+000 -0.49360522E+000  0.76245043E+000
 -0.64330942E+000 -0.48631503E-001  0.76406019E+000
 -0.70883649E+000 -0.53933647E-001  0.70330789E+000
 -0.89366856E+000 -0.65894832E-001  0.44386302E+000
 -0.99737095E+000 -0.72464972E-001  0.82577885E-004
 -0.89372778E+000 -0.64528567E-001 -0.44394450E+000
 -0.70922600E+000 -0.50922015E-001 -0.70313969E+000
 -0.64365428E+000 -0.46096020E-001 -0.76392691E+000
 -0.51041460E+000 -0.36771645E-001 -0.85914189E+000
VECTORS Orth double
 -0.49238885E+000 -0.58213754E+000 -0.64704644E+000
 -0.76197719E+000 -0.56385699E-001 -0.64514449E+000
 -0.70138760E+000 -0.51946433E-001 -0.71088466E+000
 -0.44269160E+000 -0.32228400E-001 -0.89609457E+000
 -0.65566221E-004 -0.23713579E-003 -0.99999997E+000
  0.44287176E+000  0.30859622E-001 -0.89605373E+000
  0.70139927E+000  0.49446011E-001 -0.71105144E+000
  0.76197902E+000  0.54518884E-001 -0.64530277E+000
  0.85691913E+000  0.61760717E-001 -0.51173745E+000
