# vtk DataFile Version 2.0
BldPointCP.BldB
ASCII
 
DATASET POLYDATA
POINTS 9 double
  0.42957626E+001  0.10661815E+002  0.10631772E+003
  0.10426471E+002  0.26147866E+002  0.94550017E+002
  0.15350410E+002  0.38521283E+002  0.82363587E+002
  0.18669495E+002  0.46842315E+002  0.70099110E+002
  0.19726836E+002  0.49492650E+002  0.58089615E+002
  0.18656014E+002  0.46801642E+002  0.46088100E+002
  0.15336916E+002  0.38474732E+002  0.33819898E+002
  0.10413069E+002  0.26122323E+002  0.21603234E+002
  0.42448492E+001  0.10646903E+002  0.98379267E+001
  
POINT_DATA 9
SCALARS Gamma_LL double
LOOKUP_TABLE default
  0.10000560E+003
  0.49889924E+002
  0.22951288E+002
  0.35053800E+002
  0.52787068E+002
  0.45703218E+002
  0.34215870E+002
  0.47591404E+002
  0.52785673E+002
VECTORS Vind_CP double
  0.11635326E-001 -0.66463007E-001 -0.36347068E+000
 -0.42059678E-001 -0.64357057E-001 -0.10873869E+000
 -0.16299985E-001 -0.35328007E-001 -0.33705389E-002
 -0.49422301E-001 -0.16964431E+000 -0.34287337E-001
 -0.11213755E+000 -0.34566443E+000  0.50284973E-002
 -0.75367117E-001 -0.23741858E+000  0.74091241E-001
 -0.36555868E-001 -0.96858304E-001  0.56836988E-001
 -0.52278697E-001 -0.11653226E+000  0.12094962E+000
 -0.67027267E-001 -0.52879670E-001  0.13342727E+000
VECTORS Vtot_CP double
  0.35019927E+002 -0.80018638E+001  0.36955635E+000
  0.63607225E+002 -0.19903489E+002  0.36520923E+000
  0.86115400E+002 -0.29736560E+002 -0.67517272E+000
  0.10156954E+003 -0.34914566E+002 -0.50165039E+000
  0.10669009E+003 -0.35753916E+002  0.11427572E+000
  0.10166654E+003 -0.33950243E+002  0.55867349E+000
  0.86322818E+002 -0.28482769E+002  0.86663392E+000
  0.64069061E+002 -0.19326708E+002  0.46578508E+000
  0.36310963E+002 -0.77004116E+001  0.49787098E-001
VECTORS Vstr_CP double
 -0.17808292E+002  0.79354008E+001 -0.73302703E+000
 -0.46449285E+002  0.19839132E+002 -0.47394792E+000
 -0.68931700E+002  0.29701232E+002  0.67180218E+000
 -0.84418958E+002  0.34744922E+002  0.46736305E+000
 -0.89602232E+002  0.35408251E+002 -0.10924722E+000
 -0.84541909E+002  0.33712825E+002 -0.48458224E+000
 -0.69159374E+002  0.28385911E+002 -0.80979693E+000
 -0.46921339E+002  0.19210176E+002 -0.34483545E+000
 -0.19177990E+002  0.76475319E+001  0.83640173E-001
VECTORS Vwnd_CP double
  0.17200000E+002 -0.00000000E+000  0.00000000E+000
  0.17200000E+002 -0.00000000E+000  0.00000000E+000
  0.17200000E+002 -0.00000000E+000  0.00000000E+000
  0.17200000E+002 -0.00000000E+000  0.00000000E+000
  0.17200000E+002 -0.00000000E+000  0.00000000E+000
  0.17200000E+002 -0.00000000E+000  0.00000000E+000
  0.17200000E+002 -0.00000000E+000  0.00000000E+000
  0.17200000E+002 -0.00000000E+000  0.00000000E+000
  0.17200000E+002 -0.00000000E+000  0.00000000E+000
VECTORS Tangent double
  0.79703308E+000 -0.60393560E+000  0.23945688E-003
  0.92731554E+000 -0.37428006E+000 -0.57429570E-003
  0.93041025E+000 -0.36651979E+000 -0.73884585E-004
  0.92994721E+000 -0.36769303E+000  0.16257629E-003
  0.92815107E+000 -0.37220369E+000 -0.24523718E-004
  0.92892595E+000 -0.37026552E+000 -0.17997585E-003
  0.92971826E+000 -0.36827157E+000 -0.60293976E-004
  0.92873737E+000 -0.37073832E+000  0.86032858E-004
  0.92853915E+000 -0.37122871E+000  0.20702861E-002
VECTORS Normal double
  0.31903370E+000  0.42137555E+000  0.84891704E+000
  0.24021285E+000  0.59397281E+000  0.76778518E+000
  0.25973653E+000  0.65919875E+000  0.70568686E+000
  0.33043538E+000  0.83591116E+000  0.43825220E+000
  0.37220262E+000  0.92814857E+000 -0.23334025E-002
  0.33233632E+000  0.83398290E+000 -0.44048280E+000
  0.26138564E+000  0.65999521E+000 -0.70433221E+000
  0.23817021E+000  0.59646284E+000 -0.76649008E+000
  0.19184273E+000  0.47505903E+000 -0.85878710E+000
VECTORS Orth double
  0.51279212E+000  0.67653857E+000 -0.52852607E+000
  0.28702556E+000  0.71211708E+000 -0.64070710E+000
  0.25859949E+000  0.65659748E+000 -0.70852386E+000
  0.16127818E+000  0.40749769E+000 -0.89885203E+000
 -0.89126266E-003 -0.21566222E-002 -0.99999728E+000
 -0.16324569E+000 -0.40911609E+000 -0.89776103E+000
 -0.25942532E+000 -0.65481476E+000 -0.70987050E+000
 -0.28411592E+000 -0.71188846E+000 -0.64225615E+000
 -0.31782292E+000 -0.79781462E+000 -0.51232844E+000
