# vtk DataFile Version 2.0
BldPointCP.BldB
ASCII
 
DATASET POLYDATA
POINTS 9 double
  0.32266989E+001  0.11079832E+002  0.10627154E+003
  0.75842462E+001  0.27165558E+002  0.94508205E+002
  0.11114369E+002  0.40058504E+002  0.82386802E+002
  0.13487756E+002  0.48660974E+002  0.70121188E+002
  0.14237298E+002  0.51332121E+002  0.58083098E+002
  0.13479503E+002  0.48538787E+002  0.46063924E+002
  0.11099262E+002  0.39935879E+002  0.33778799E+002
  0.75382194E+001  0.27111786E+002  0.21581750E+002
  0.30714227E+001  0.11042707E+002  0.98393103E+001
  
POINT_DATA 9
SCALARS Gamma_LL double
LOOKUP_TABLE default
  0.11112772E+003
  0.51398107E+002
  0.19179802E+002
  0.23452183E+002
  0.44919203E+002
  0.38693043E+002
  0.27024695E+002
  0.38104920E+002
  0.45401503E+002
VECTORS Vind_CP double
  0.97041909E-002 -0.10243110E+000 -0.47468261E+000
 -0.66211516E-001 -0.13268951E+000 -0.19066906E+000
 -0.37181046E-001 -0.87028562E-001 -0.24548372E-001
 -0.65208001E-001 -0.27195864E+000 -0.26655589E-001
 -0.13176258E+000 -0.54649601E+000  0.24424690E-001
 -0.11513792E+000 -0.42327515E+000  0.12059002E+000
 -0.64213666E-001 -0.18612778E+000  0.10537916E+000
 -0.61500220E-001 -0.17329285E+000  0.16598909E+000
 -0.10946926E+000 -0.67711296E-001  0.12180247E+000
VECTORS Vtot_CP double
  0.34960421E+002 -0.60438584E+001  0.24598400E+000
  0.65152745E+002 -0.14483502E+002  0.58405772E+000
  0.89232178E+002 -0.21793644E+002 -0.18496174E+000
  0.10533549E+003 -0.25812509E+002 -0.25657366E+000
  0.11030656E+003 -0.26298105E+002  0.15649058E+000
  0.10496007E+003 -0.24668166E+002  0.47241179E+000
  0.89095297E+002 -0.20580821E+002  0.68815059E+000
  0.65915721E+002 -0.14034187E+002  0.48578674E+000
  0.36982118E+002 -0.56029342E+001  0.12321899E+000
VECTORS Vstr_CP double
 -0.17750717E+002  0.59414273E+001 -0.72066662E+000
 -0.48018957E+002  0.14350813E+002 -0.77472679E+000
 -0.72069359E+002  0.21706615E+002  0.16041337E+000
 -0.88200696E+002  0.25540551E+002  0.22991807E+000
 -0.93238324E+002  0.25751609E+002 -0.13206589E+000
 -0.87875211E+002  0.24244891E+002 -0.35182177E+000
 -0.71959511E+002  0.20394693E+002 -0.58277144E+000
 -0.48777221E+002  0.13860894E+002 -0.31979765E+000
 -0.19891587E+002  0.55352229E+001 -0.14165193E-002
VECTORS Vwnd_CP double
  0.17200000E+002  0.00000000E+000  0.00000000E+000
  0.17200000E+002  0.00000000E+000  0.00000000E+000
  0.17200000E+002  0.00000000E+000  0.00000000E+000
  0.17200000E+002  0.00000000E+000  0.00000000E+000
  0.17200000E+002  0.00000000E+000  0.00000000E+000
  0.17200000E+002  0.00000000E+000  0.00000000E+000
  0.17200000E+002  0.00000000E+000  0.00000000E+000
  0.17200000E+002  0.00000000E+000  0.00000000E+000
  0.17200000E+002  0.00000000E+000  0.00000000E+000
VECTORS Tangent double
  0.85424253E+000 -0.51987374E+000  0.10013444E-002
  0.96047184E+000 -0.27836515E+000 -0.25844280E-002
  0.96520894E+000 -0.26147004E+000 -0.22626031E-002
  0.96503500E+000 -0.26212014E+000 -0.69835468E-003
  0.96227713E+000 -0.27207113E+000 -0.15504137E-003
  0.96329402E+000 -0.26844841E+000 -0.27628182E-003
  0.96451302E+000 -0.26403524E+000 -0.14156051E-003
  0.96336616E+000 -0.26818955E+000  0.74628859E-004
  0.96301472E+000 -0.26941013E+000  0.45639101E-002
VECTORS Normal double
  0.27634070E+000  0.45570539E+000  0.84614917E+000
  0.17918999E+000  0.61111953E+000  0.77098889E+000
  0.18606938E+000  0.68073869E+000  0.70850054E+000
  0.23688404E+000  0.87097764E+000  0.43044616E+000
  0.27206365E+000  0.96225461E+000 -0.68872667E-002
  0.24147715E+000  0.86695969E+000 -0.43596981E+000
  0.18745500E+000  0.68514501E+000 -0.70387281E+000
  0.17166559E+000  0.61642770E+000 -0.76847109E+000
  0.14182247E+000  0.49240144E+000 -0.85873582E+000
VECTORS Orth double
  0.44034705E+000  0.72253989E+000 -0.53294519E+000
  0.21303704E+000  0.74097622E+000 -0.63684335E+000
  0.18371143E+000  0.68427206E+000 -0.70570664E+000
  0.11222036E+000  0.41556104E+000 -0.90261598E+000
 -0.20230157E-002 -0.65852781E-002 -0.99997627E+000
 -0.11727493E+000 -0.41990040E+000 -0.89996125E+000
 -0.18594421E+000 -0.67886796E+000 -0.71032601E+000
 -0.20604991E+000 -0.74033186E+000 -0.63988450E+000
 -0.22910485E+000 -0.82762250E+000 -0.51239824E+000
