# vtk DataFile Version 2.0

ASCII
 
DATASET POLYDATA
POINTS 50 double
  0.11630622E-001  0.19649167E-002  0.11318236E+003
  0.11224071E+002 -0.17218806E+002  0.10093178E+003
  0.19144066E+002 -0.29373188E+002  0.88703811E+002
  0.25778050E+002 -0.39546270E+002  0.76462987E+002
  0.29091077E+002 -0.44627449E+002  0.64215940E+002
  0.29090492E+002 -0.44626284E+002  0.51969641E+002
  0.25776823E+002 -0.39542332E+002  0.39724263E+002
  0.19143463E+002 -0.29367380E+002  0.27482153E+002
  0.11222778E+002 -0.17217136E+002  0.15248946E+002
  0.10680812E-003  0.22270773E-004  0.30000678E+001
 -0.20248772E+001 -0.40108440E+001  0.11318238E+003
  0.75288512E+001 -0.19629885E+002  0.10093332E+003
  0.16549335E+002 -0.31063740E+002  0.88704700E+002
  0.23720705E+002 -0.40886667E+002  0.76463184E+002
  0.27201939E+002 -0.45860203E+002  0.64216058E+002
  0.27164973E+002 -0.45883543E+002  0.51969215E+002
  0.23597939E+002 -0.40961479E+002  0.39723712E+002
  0.16273735E+002 -0.31238081E+002  0.27482163E+002
  0.74536088E+001 -0.19675460E+002  0.15248955E+002
 -0.37695456E+001 -0.24575600E+001  0.29968252E+001
 -0.19320297E+001 -0.39747477E+001  0.11318271E+003
  0.73439745E+001 -0.19760216E+002  0.10093770E+003
  0.16155409E+002 -0.31349569E+002  0.88701196E+002
  0.23145539E+002 -0.41298124E+002  0.76458698E+002
  0.26537237E+002 -0.46335762E+002  0.64214428E+002
  0.26500193E+002 -0.46359236E+002  0.51969630E+002
  0.23022428E+002 -0.41373738E+002  0.39725954E+002
  0.15876711E+002 -0.31521966E+002  0.27483722E+002
  0.72690691E+001 -0.19805769E+002  0.15245559E+002
 -0.36413608E+001 -0.23890952E+001  0.29986790E+001
 -0.18346755E+001 -0.39368247E+001  0.11318286E+003
  0.71579747E+001 -0.19884904E+002  0.10093988E+003
  0.15757288E+002 -0.31627029E+002  0.88698641E+002
  0.22565228E+002 -0.41698414E+002  0.76456033E+002
  0.25865424E+002 -0.46796441E+002  0.64213152E+002
  0.25827920E+002 -0.46819193E+002  0.51970026E+002
  0.22441104E+002 -0.41772907E+002  0.39727261E+002
  0.15475577E+002 -0.31796052E+002  0.27484771E+002
  0.70826896E+001 -0.19929906E+002  0.15243237E+002
 -0.35119110E+001 -0.23198756E+001  0.29997207E+001
 -0.17340005E+001 -0.38971146E+001  0.11318291E+003
  0.69704787E+001 -0.20003986E+002  0.10094036E+003
  0.15356194E+002 -0.31897708E+002  0.88697815E+002
  0.21981073E+002 -0.42089535E+002  0.76455270E+002
  0.25188718E+002 -0.47245953E+002  0.64212725E+002
  0.25150734E+002 -0.47267883E+002  0.51970180E+002
  0.21855653E+002 -0.42161947E+002  0.39727634E+002
  0.15071489E+002 -0.32062084E+002  0.27485089E+002
  0.68944854E+001 -0.20047861E+002  0.15242544E+002
 -0.33811157E+001 -0.22499996E+001  0.29999949E+001
  
POLYGONS 36 180
      4      0      1     11     10
      4      1      2     12     11
      4      2      3     13     12
      4      3      4     14     13
      4      4      5     15     14
      4      5      6     16     15
      4      6      7     17     16
      4      7      8     18     17
      4      8      9     19     18
      4     10     11     21     20
      4     11     12     22     21
      4     12     13     23     22
      4     13     14     24     23
      4     14     15     25     24
      4     15     16     26     25
      4     16     17     27     26
      4     17     18     28     27
      4     18     19     29     28
      4     20     21     31     30
      4     21     22     32     31
      4     22     23     33     32
      4     23     24     34     33
      4     24     25     35     34
      4     25     26     36     35
      4     26     27     37     36
      4     27     28     38     37
      4     28     29     39     38
      4     30     31     41     40
      4     31     32     42     41
      4     32     33     43     42
      4     33     34     44     43
      4     34     35     45     44
      4     35     36     46     45
      4     36     37     47     46
      4     37     38     48     47
      4     38     39     49     48
  
CELL_DATA 36
SCALARS Gamma double
LOOKUP_TABLE default
  0.10796506E+001
  0.22864924E+001
  0.17123151E+001
  0.19508177E+001
  0.22107269E+001
  0.21117534E+001
  0.20087758E+001
  0.24850141E+001
  0.67029763E+000
  0.10796506E+001
  0.22864924E+001
  0.17123151E+001
  0.19508177E+001
  0.22107269E+001
  0.21117534E+001
  0.20087758E+001
  0.24850141E+001
  0.67029763E+000
  0.12168383E-001
  0.26361473E-001
  0.20268502E-001
  0.22122473E-001
  0.24323726E-001
  0.23479501E-001
  0.22930704E-001
  0.28397287E-001
  0.76470951E-002
  0.00000000E+000
  0.00000000E+000
  0.00000000E+000
  0.00000000E+000
  0.00000000E+000
  0.00000000E+000
  0.00000000E+000
  0.00000000E+000
  0.00000000E+000
POINT_DATA 50
VECTORS Uconv double
  0.00000000E+000  0.00000000E+000  0.00000000E+000
  0.00000000E+000  0.00000000E+000  0.00000000E+000
  0.00000000E+000  0.00000000E+000  0.00000000E+000
  0.00000000E+000  0.00000000E+000  0.00000000E+000
  0.00000000E+000  0.00000000E+000  0.00000000E+000
  0.00000000E+000  0.00000000E+000  0.00000000E+000
  0.00000000E+000  0.00000000E+000  0.00000000E+000
  0.00000000E+000  0.00000000E+000  0.00000000E+000
  0.00000000E+000  0.00000000E+000  0.00000000E+000
  0.00000000E+000  0.00000000E+000  0.00000000E+000
  0.00000000E+000  0.00000000E+000  0.00000000E+000
  0.00000000E+000  0.00000000E+000  0.00000000E+000
  0.00000000E+000  0.00000000E+000  0.00000000E+000
  0.00000000E+000  0.00000000E+000  0.00000000E+000
  0.00000000E+000  0.00000000E+000  0.00000000E+000
  0.00000000E+000  0.00000000E+000  0.00000000E+000
  0.00000000E+000  0.00000000E+000  0.00000000E+000
  0.00000000E+000  0.00000000E+000  0.00000000E+000
  0.00000000E+000  0.00000000E+000  0.00000000E+000
  0.00000000E+000  0.00000000E+000  0.00000000E+000
  0.17199956E+002 -0.28467986E-004 -0.15981899E-003
  0.17199964E+002  0.30155665E-004 -0.11828077E-003
  0.17199924E+002  0.11635799E-003 -0.14401289E-003
  0.17199903E+002  0.14699661E-003 -0.12864312E-003
  0.17199885E+002  0.16945818E-003 -0.35377531E-004
  0.17199881E+002  0.17654717E-003  0.38883438E-004
  0.17199933E+002  0.10610792E-003  0.75782772E-004
  0.17199953E+002  0.69997203E-004  0.86410642E-004
  0.17199965E+002  0.41808550E-004  0.10355945E-003
  0.17199853E+002  0.44973031E-004 -0.30264454E-003
  0.17199955E+002 -0.28350816E-004 -0.16101852E-003
  0.17199967E+002  0.24395712E-004 -0.10311072E-003
  0.17199935E+002  0.99049407E-004 -0.12087204E-003
  0.17199931E+002  0.10397532E-003 -0.98038681E-004
  0.17199953E+002  0.69355612E-004 -0.11615390E-004
  0.17199951E+002  0.73835632E-004  0.13715838E-004
  0.17199970E+002  0.51689048E-004  0.32605036E-004
  0.17199969E+002  0.46039646E-004  0.55047959E-004
  0.17199969E+002  0.36374635E-004  0.89439686E-004
  0.17199855E+002  0.41839397E-004 -0.30385222E-003
  0.17199954E+002 -0.28242011E-004 -0.16220071E-003
  0.17199971E+002  0.18549104E-004 -0.88248843E-004
  0.17199947E+002  0.80016859E-004 -0.95786633E-004
  0.17199962E+002  0.57305345E-004 -0.63762226E-004
  0.17200019E+002 -0.32194561E-004  0.11980968E-004
  0.17200019E+002 -0.30181877E-004 -0.11465148E-004
  0.17200006E+002 -0.35038296E-005 -0.10747946E-004
  0.17199985E+002  0.21847935E-004  0.23705831E-004
  0.17199972E+002  0.30838455E-004  0.75618600E-004
  0.17199857E+002  0.38723300E-004 -0.30541947E-003
