<?xml version="1.0"?>
<VTKFile type="PolyData" version="0.1" byte_order="LittleEndian">
  <PolyData>
    <Piece NumberOfPoints="     10" NumberOfVerts="  0" NumberOfLines="      9"
           NumberOfStrips="  0" NumberOfPolys="      0">
      <Points>
        <DataArray type="Float32" NumberOfComponents="3" format="ascii">
                       0.04227                       0.09088                      15.12047
                       1.02495                       2.21354                      15.12311
                       2.00757                       4.33622                      15.12586
                       2.99019                       6.45890                      15.12840
                       3.97281                       8.58158                      15.13062
                       4.95352                      10.70525                      15.13317
                       5.93631                      12.82783                      15.13402
                       6.91906                      14.95041                      15.13438
                       7.90176                      17.07301                      15.13410
                       8.88437                      19.19562                      15.13302
        </DataArray>
      </Points>
      <PointData>
        <DataArray type="Float32" Name="TranslationalVelocity" NumberOfComponents="3" format="ascii">
                      -0.16829                       0.07710                       0.00501
                      -3.99438                       1.84842                       0.10828
                      -7.81977                       3.61928                       0.20595
                     -11.64460                       5.38985                       0.29030
                     -15.46902                       7.16020                       0.35492
                     -19.29478                       8.92675                       0.39344
                     -23.11877                      10.69708                       0.40326
                     -26.94291                      12.46730                       0.38496
                     -30.76740                      14.23732                       0.33961
                     -34.59245                      16.00724                       0.26964
        </DataArray>
        <DataArray type="Float32" Name="RotationalVelocity" NumberOfComponents="3" format="ascii">
                       0.05027                       0.00393                       1.80282
                       0.04883                       0.00151                       1.80248
                       0.04461                       0.00017                       1.80218
                       0.03797                      -0.00010                       1.80195
                       0.02935                       0.00050                       1.80178
                       0.00821                       0.00339                       1.80164
                      -0.00310                       0.00515                       1.80167
                      -0.01398                       0.00669                       1.80177
                      -0.02481                       0.00801                       1.80193
                      -0.03373                       0.00846                       1.80218
        </DataArray>
        <DataArray type="Float32" Name="TranslationalAcceleration" NumberOfComponents="3" format="ascii">
                      -0.62148                      -0.16448                       0.12177
                      -0.95366                      -0.85348                       0.04773
                      -1.08491                      -1.25863                      -0.09124
                      -1.16538                      -1.68406                      -0.36289
                      -1.20644                      -2.12427                      -0.84966
                       1.97609                       3.85973                      -2.67162
                       1.98033                       3.40685                      -3.75368
                       1.98054                       2.95772                      -4.50945
                       1.96847                       2.45849                      -5.13177
                       1.93821                       1.94595                      -5.99483
        </DataArray>
        <DataArray type="Float32" Name="OrientationX" NumberOfComponents="3" format="ascii">
                      -0.00039                       0.00002                       1.00000
                      -0.00048                      -0.00013                       1.00000
                      -0.00054                      -0.00027                       1.00000
                      -0.00055                      -0.00031                       1.00000
                      -0.00051                      -0.00030                       1.00000
                      -0.00007                      -0.00004                       1.00000
                      -0.00010                      -0.00008                       1.00000
                      -0.00011                      -0.00009                       1.00000
                      -0.00012                      -0.00008                       1.00000
                      -0.00023                      -0.00035                       1.00000
        </DataArray>
        <DataArray type="Float32" Name="OrientationY" NumberOfComponents="3" format="ascii">
                       0.90728                      -0.42052                       0.00036
                       0.90728                      -0.42053                       0.00038
                       0.90727                      -0.42054                       0.00038
                       0.90726                      -0.42057                       0.00037
                       0.90725                      -0.42059                       0.00034
                       0.90689                      -0.42136                       0.00005
                       0.90693                      -0.42127                       0.00006
                       0.90699                      -0.42114                       0.00006
                       0.90707                      -0.42099                       0.00007
                       0.90710                      -0.42091                       0.00006
        </DataArray>
        <DataArray type="Float32" Name="OrientationZ" NumberOfComponents="3" format="ascii">
                       0.42052                       0.90728                       0.00015
                       0.42053                       0.90728                       0.00032
                       0.42054                       0.90727                       0.00047
                       0.42057                       0.90726                       0.00051
                       0.42059                       0.90725                       0.00049
                       0.42136                       0.90689                       0.00007
                       0.42127                       0.90693                       0.00011
                       0.42114                       0.90699                       0.00013
                       0.42099                       0.90707                       0.00013
                       0.42091                       0.90710                       0.00041
        </DataArray>
      </PointData>
      <Lines>
        <DataArray type="Int32" Name="connectivity" format="ascii">
      0      1
      1      2
      2      3
      3      4
      4      5
      5      6
      6      7
      7      8
      8      9
        </DataArray>
        <DataArray type="Int32" Name="offsets" format="ascii">
      2
      4
      6
      8
     10
     12
     14
     16
     18
        </DataArray>
      </Lines>
    </Piece>
  </PolyData>
</VTKFile>
