# vtk DataFile Version 2.0
BldPointCP.BldC
ASCII
 
DATASET POLYDATA
POINTS 9 double
  0.67983289E+001 -0.92469814E+001  0.10633562E+003
  0.16609278E+002 -0.22696749E+002  0.94560787E+002
  0.24460349E+002 -0.33430781E+002  0.82348890E+002
  0.29767941E+002 -0.40670933E+002  0.70090957E+002
  0.31474718E+002 -0.42994143E+002  0.58094337E+002
  0.29761907E+002 -0.40651097E+002  0.46102027E+002
  0.24454302E+002 -0.33403692E+002  0.33843802E+002
  0.16602463E+002 -0.22681329E+002  0.21615490E+002
  0.67696883E+001 -0.92487817E+001  0.98364568E+001
  
POINT_DATA 9
SCALARS Gamma_LL double
LOOKUP_TABLE default
  0.21751674E+002
  0.43748467E+002
  0.31092012E+002
  0.37702419E+002
  0.44954690E+002
  0.42522550E+002
  0.38757463E+002
  0.47116865E+002
  0.12995209E+002
VECTORS Vind_CP double
 -0.50276702E-001 -0.61916738E-001 -0.11496882E+000
 -0.35837109E-001  0.47602695E-001 -0.87137139E-001
 -0.39867172E-001  0.42021565E-001 -0.39409176E-001
 -0.89381665E-001  0.97169130E-001 -0.40941124E-001
 -0.14078347E+000  0.16082152E+000  0.12284358E-002
 -0.10620796E+000  0.11791970E+000  0.54541693E-001
 -0.58901524E-001  0.66755410E-001  0.64195221E-001
 -0.59443740E-001  0.71246301E-001  0.10278952E+000
 -0.37155806E-001 -0.46582948E-001  0.31288782E-001
VECTORS Vtot_CP double
 -0.64030092E+000 -0.12455415E+002  0.46433457E+000
 -0.24543600E+002 -0.29165676E+002  0.23080365E+000
 -0.44124371E+002 -0.42507935E+002 -0.69454135E+000
 -0.56939001E+002 -0.52756500E+002 -0.54473087E+000
 -0.60837988E+002 -0.56761588E+002 -0.15584498E-001
 -0.56767763E+002 -0.53574613E+002  0.36150509E+000
 -0.43804420E+002 -0.43630260E+002  0.55199564E+000
 -0.24125654E+002 -0.29686359E+002  0.17399894E+000
  0.43456544E+000 -0.12295301E+002 -0.12398640E+000
VECTORS Vstr_CP double
  0.17790024E+002  0.12393498E+002 -0.57930339E+000
  0.41707763E+002  0.29213279E+002 -0.31794079E+000
  0.61284504E+002  0.42549957E+002  0.65513218E+000
  0.74049620E+002  0.52853669E+002  0.50378974E+000
  0.77897205E+002  0.56922409E+002  0.16812934E-001
  0.73861555E+002  0.53692533E+002 -0.30696339E+000
  0.60945518E+002  0.43697016E+002 -0.48780042E+000
  0.41266210E+002  0.29757605E+002 -0.71209427E-001
  0.16728279E+002  0.12248718E+002  0.15527518E+000
VECTORS Vwnd_CP double
  0.17200000E+002  0.00000000E+000  0.00000000E+000
  0.17200000E+002  0.00000000E+000  0.00000000E+000
  0.17200000E+002  0.00000000E+000  0.00000000E+000
  0.17200000E+002  0.00000000E+000  0.00000000E+000
  0.17200000E+002  0.00000000E+000  0.00000000E+000
  0.17200000E+002  0.00000000E+000  0.00000000E+000
  0.17200000E+002  0.00000000E+000  0.00000000E+000
  0.17200000E+002  0.00000000E+000  0.00000000E+000
  0.17200000E+002  0.00000000E+000  0.00000000E+000
VECTORS Tangent double
 -0.62330429E+000 -0.78197929E+000  0.38037721E-003
 -0.80660056E+000 -0.59109595E+000  0.10542252E-002
 -0.80847997E+000 -0.58852358E+000  0.35996999E-003
 -0.80747123E+000 -0.58990693E+000 -0.13868642E-003
 -0.80608632E+000 -0.59179794E+000 -0.17988721E-003
 -0.80696660E+000 -0.59059699E+000 -0.33782740E-003
 -0.80765918E+000 -0.58964959E+000 -0.89492492E-004
 -0.80668037E+000 -0.59098797E+000  0.54029146E-004
 -0.80653214E+000 -0.59118879E+000 -0.13090956E-002
VECTORS Normal double
  0.41222435E+000 -0.32816459E+000  0.84992887E+000
  0.38054939E+000 -0.51792555E+000  0.76611702E+000
  0.41753461E+000 -0.57315384E+000  0.70509540E+000
  0.52924685E+000 -0.72454283E+000  0.44151497E+000
  0.59179781E+000 -0.80608584E+000 -0.98320350E-003
  0.52969078E+000 -0.72349372E+000 -0.44270138E+000
  0.41843792E+000 -0.57303891E+000 -0.70465319E+000
  0.38041912E+000 -0.51933033E+000 -0.76523023E+000
  0.30374793E+000 -0.41248782E+000 -0.85883118E+000
VECTORS Orth double
  0.66450195E+000 -0.52992112E+000 -0.52689730E+000
  0.45230266E+000 -0.61835160E+000 -0.64270024E+000
  0.41475896E+000 -0.57020581E+000 -0.70911236E+000
  0.26055322E+000 -0.35643723E+000 -0.89725387E+000
 -0.43685328E-003  0.89900375E-003 -0.99999950E+000
 -0.26121368E+000  0.35742417E+000 -0.89666904E+000
 -0.41544718E+000  0.56915706E+000 -0.70955188E+000
 -0.45226992E+000  0.61727565E+000 -0.64375670E+000
 -0.50719138E+000  0.69307259E+000 -0.51225705E+000
