<?xml version="1.0"?>
<VTKFile type="PolyData" version="0.1" byte_order="LittleEndian">
  <PolyData>
    <Piece NumberOfPoints="     10" NumberOfVerts="  0" NumberOfLines="      9"
           NumberOfStrips="  0" NumberOfPolys="      0">
      <Points>
        <DataArray type="Float32" NumberOfComponents="3" format="ascii">
                      -0.09933                      -0.00886                      15.12047
                      -2.42892                      -0.21918                      15.12005
                      -4.75844                      -0.43032                      15.12005
                      -7.08789                      -0.64206                      15.12000
                      -9.41755                      -0.85160                      15.12209
                     -11.74698                      -1.06435                      15.12236
                     -14.07648                      -1.27545                      15.12180
                     -16.40596                      -1.48656                      15.12087
                     -18.73544                      -1.69766                      15.11976
                     -21.06492                      -1.90872                      15.11868
        </DataArray>
      </Points>
      <PointData>
        <DataArray type="Float32" Name="TranslationalVelocity" NumberOfComponents="3" format="ascii">
                       0.01136                      -0.17796                       0.00501
                       0.38975                      -4.38393                       0.00871
                       0.77031                      -8.59792                       0.01844
                       1.15260                     -12.81865                       0.02917
                       1.53147                     -17.04537                       0.03690
                       1.91563                     -21.27812                       0.03823
                       2.29824                     -25.51208                       0.03127
                       2.68114                     -29.74767                       0.01592
                       3.06410                     -33.98363                      -0.00643
                       3.44702                     -38.21869                      -0.03244
        </DataArray>
        <DataArray type="Float32" Name="RotationalVelocity" NumberOfComponents="3" format="ascii">
                       0.01704                       0.00093                       1.80282
                       0.01673                       0.00435                       1.80609
                       0.01658                       0.00598                       1.80908
                       0.01658                       0.00592                       1.81163
                       0.01670                       0.00451                       1.81373
                       0.01716                      -0.00090                       1.81659
                       0.01743                      -0.00416                       1.81735
                       0.01768                      -0.00732                       1.81764
                       0.01794                      -0.00901                       1.81748
                       0.01812                      -0.00998                       1.81686
        </DataArray>
        <DataArray type="Float32" Name="TranslationalAcceleration" NumberOfComponents="3" format="ascii">
                      -0.62148                      -0.16448                       0.12177
                       0.24379                      -0.22356                      -0.07165
                       0.79747                      -0.42470                      -0.44726
                       1.37520                      -0.72107                      -0.85150
                       1.98050                      -1.10973                      -1.11777
                      -4.40485                      -2.78210                      -0.78798
                      -3.70655                      -3.36226                      -0.38229
                      -2.96322                      -3.98929                      -0.13157
                      -2.21467                      -4.64206                       0.16998
                      -1.42593                      -5.32202                       0.82185
        </DataArray>
        <DataArray type="Float32" Name="OrientationX" NumberOfComponents="3" format="ascii">
                      -0.00136                       0.00025                       1.00000
                      -0.00198                       0.00028                       1.00000
                      -0.00203                       0.00016                       1.00000
                      -0.00216                      -0.00025                       1.00000
                       0.00000                      -0.00004                       1.00000
                      -0.00023                      -0.00021                       1.00000
                      -0.00021                      -0.00027                       1.00000
                      -0.00012                      -0.00031                       1.00000
                       0.00002                      -0.00034                       1.00000
                       0.00006                      -0.00004                       1.00000
        </DataArray>
        <DataArray type="Float32" Name="OrientationY" NumberOfComponents="3" format="ascii">
                      -0.08946                       0.99599                      -0.00037
                      -0.08915                       0.99602                      -0.00045
                      -0.09020                       0.99592                      -0.00034
                      -0.09124                       0.99583                       0.00005
                      -0.08948                       0.99599                       0.00004
                      -0.08948                       0.99599                       0.00019
                      -0.08948                       0.99599                       0.00025
                      -0.08947                       0.99599                       0.00030
                      -0.08946                       0.99599                       0.00034
                      -0.08941                       0.99600                       0.00004
        </DataArray>
        <DataArray type="Float32" Name="OrientationZ" NumberOfComponents="3" format="ascii">
                      -0.99599                      -0.08946                      -0.00133
                      -0.99602                      -0.08915                      -0.00194
                      -0.99592                      -0.09020                      -0.00201
                      -0.99583                      -0.09124                      -0.00217
                      -0.99599                      -0.08948                      -0.00000
                      -0.99599                      -0.08948                      -0.00025
                      -0.99599                      -0.08948                      -0.00023
                      -0.99599                      -0.08947                      -0.00015
                      -0.99599                      -0.08946                      -0.00001
                      -0.99600                      -0.08941                       0.00006
        </DataArray>
      </PointData>
      <Lines>
        <DataArray type="Int32" Name="connectivity" format="ascii">
      0      1
      1      2
      2      3
      3      4
      4      5
      5      6
      6      7
      7      8
      8      9
        </DataArray>
        <DataArray type="Int32" Name="offsets" format="ascii">
      2
      4
      6
      8
     10
     12
     14
     16
     18
        </DataArray>
      </Lines>
    </Piece>
  </PolyData>
</VTKFile>
