# vtk DataFile Version 2.0

ASCII
 
DATASET POLYDATA
POINTS 90 double
  0.70409328E-001  0.12977486E-001  0.11318156E+003
  0.79673241E+001  0.18961670E+002  0.10088731E+003
  0.13585261E+002  0.32385075E+002  0.88719308E+002
  0.18296765E+002  0.43597588E+002  0.76495304E+002
  0.20622582E+002  0.49139265E+002  0.64217333E+002
  0.20614668E+002  0.49119172E+002  0.51963616E+002
  0.18281304E+002  0.43556678E+002  0.39698165E+002
  0.13578269E+002  0.32355964E+002  0.27455797E+002
  0.79540432E+001  0.18950620E+002  0.15259455E+002
  0.18607695E-003  0.45982688E-004  0.30001419E+001
  0.27930596E+001 -0.35699208E+001  0.11318546E+003
  0.12023203E+002  0.17224491E+002  0.10088502E+003
  0.16443522E+002  0.31193043E+002  0.88719123E+002
  0.20565275E+002  0.42657806E+002  0.76496028E+002
  0.22702219E+002  0.48265402E+002  0.64217494E+002
  0.22732815E+002  0.48223752E+002  0.51963315E+002
  0.20681723E+002  0.42556924E+002  0.39697524E+002
  0.16738498E+002  0.31033914E+002  0.27456060E+002
  0.12100501E+002  0.17202225E+002  0.15259851E+002
  0.41495154E+001 -0.17414619E+001  0.30148534E+001
  0.28819548E+001 -0.36210069E+001  0.11318243E+003
  0.12501562E+002  0.17009028E+002  0.10089344E+003
  0.17169776E+002  0.30874772E+002  0.88715464E+002
  0.21494844E+002  0.42256791E+002  0.76486026E+002
  0.23740199E+002  0.47842100E+002  0.64217017E+002
  0.23772052E+002  0.47806157E+002  0.51965793E+002
  0.21613865E+002  0.42166653E+002  0.39705911E+002
  0.17463453E+002  0.30717581E+002  0.27464663E+002
  0.12580521E+002  0.16981504E+002  0.15259844E+002
  0.42888444E+001 -0.18156977E+001  0.30129638E+001
  0.29722990E+001 -0.36706710E+001  0.11318066E+003
  0.12977407E+002  0.16788028E+002  0.10090429E+003
  0.17890561E+002  0.30547705E+002  0.88712005E+002
  0.22416856E+002  0.41844479E+002  0.76476912E+002
  0.24770124E+002  0.47404819E+002  0.64216327E+002
  0.24804017E+002  0.47374692E+002  0.51967404E+002
  0.22539136E+002  0.41764034E+002  0.39712550E+002
  0.18183102E+002  0.30392354E+002  0.27471344E+002
  0.13057061E+002  0.16756051E+002  0.15258147E+002
  0.44270923E+001 -0.18894221E+001  0.30106727E+001
  0.30642860E+001 -0.37189144E+001  0.11317977E+003
  0.13450321E+002  0.16561205E+002  0.10091604E+003
  0.18605657E+002  0.30212320E+002  0.88708730E+002
  0.23331886E+002  0.41422359E+002  0.76469594E+002
  0.25791953E+002  0.46953818E+002  0.64215976E+002
  0.25828004E+002  0.46928548E+002  0.51968078E+002
  0.23457097E+002  0.41349060E+002  0.39717419E+002
  0.18897162E+002  0.30058196E+002  0.27476252E+002
  0.13529911E+002  0.16525636E+002  0.15254930E+002
  0.45642173E+001 -0.19626244E+001  0.30081758E+001
  0.31580518E+001 -0.37657031E+001  0.11317950E+003
  0.13919841E+002  0.16328309E+002  0.10092696E+003
  0.19314831E+002  0.29869133E+002  0.88705519E+002
  0.24239615E+002  0.40989840E+002  0.76463815E+002
  0.26804587E+002  0.46487024E+002  0.64215355E+002
  0.26842507E+002  0.46465345E+002  0.51968473E+002
  0.24366944E+002  0.40920898E+002  0.39721009E+002
  0.19605325E+002  0.29715162E+002  0.27479646E+002
  0.13998732E+002  0.16289874E+002  0.15250788E+002
  0.47001230E+001 -0.20352948E+001  0.30057822E+001
  0.32538997E+001 -0.38109382E+001  0.11317948E+003
  0.14384802E+002  0.16088103E+002  0.10093422E+003
  0.20017913E+002  0.29518832E+002  0.88702327E+002
  0.25140093E+002  0.40546801E+002  0.76459659E+002
  0.27807047E+002  0.46002902E+002  0.64214445E+002
  0.27845906E+002  0.45982802E+002  0.51968803E+002
  0.25268081E+002  0.40479025E+002  0.39723632E+002
  0.20306854E+002  0.29362526E+002  0.27482827E+002
  0.14462280E+002  0.16046739E+002  0.15248362E+002
  0.48347104E+001 -0.21073734E+001  0.30038084E+001
  0.33525934E+001 -0.38542876E+001  0.11317949E+003
  0.14844953E+002  0.15841936E+002  0.10093841E+003
  0.20715290E+002  0.29162258E+002  0.88699051E+002
  0.26034194E+002  0.40094765E+002  0.76457352E+002
  0.28800051E+002  0.45503628E+002  0.64213534E+002
  0.28838941E+002  0.45483474E+002  0.51969041E+002
  0.26161451E+002  0.40025714E+002  0.39725099E+002
  0.21002292E+002  0.29002104E+002  0.27485125E+002
  0.14921539E+002  0.15799248E+002  0.15244978E+002
  0.49680178E+001 -0.21787377E+001  0.30026291E+001
  0.34536925E+001 -0.38956381E+001  0.11317951E+003
  0.15300396E+002  0.15590941E+002  0.10094042E+003
  0.21408344E+002  0.28801168E+002  0.88698149E+002
  0.26922965E+002  0.39635564E+002  0.76456903E+002
  0.29785041E+002  0.44992065E+002  0.64212839E+002
  0.29823515E+002  0.44971106E+002  0.51969538E+002
  0.27048970E+002  0.39564375E+002  0.39725253E+002
  0.21692966E+002  0.28636657E+002  0.27484839E+002
  0.15376042E+002  0.15546680E+002  0.15243426E+002
  0.51001299E+001 -0.22492815E+001  0.30022607E+001
  
POLYGONS 72 360
      4      0      1     11     10
      4      1      2     12     11
      4      2      3     13     12
      4      3      4     14     13
      4      4      5     15     14
      4      5      6     16     15
      4      6      7     17     16
      4      7      8     18     17
      4      8      9     19     18
      4     10     11     21     20
      4     11     12     22     21
      4     12     13     23     22
      4     13     14     24     23
      4     14     15     25     24
      4     15     16     26     25
      4     16     17     27     26
      4     17     18     28     27
      4     18     19     29     28
      4     20     21     31     30
      4     21     22     32     31
      4     22     23     33     32
      4     23     24     34     33
      4     24     25     35     34
      4     25     26     36     35
      4     26     27     37     36
      4     27     28     38     37
      4     28     29     39     38
      4     30     31     41     40
      4     31     32     42     41
      4     32     33     43     42
      4     33     34     44     43
      4     34     35     45     44
      4     35     36     46     45
      4     36     37     47     46
      4     37     38     48     47
      4     38     39     49     48
      4     40     41     51     50
      4     41     42     52     51
      4     42     43     53     52
      4     43     44     54     53
      4     44     45     55     54
      4     45     46     56     55
      4     46     47     57     56
      4     47     48     58     57
      4     48     49     59     58
      4     50     51     61     60
      4     51     52     62     61
      4     52     53     63     62
      4     53     54     64     63
      4     54     55     65     64
      4     55     56     66     65
      4     56     57     67     66
      4     57     58     68     67
      4     58     59     69     68
      4     60     61     71     70
      4     61     62     72     71
      4     62     63     73     72
      4     63     64     74     73
      4     64     65     75     74
      4     65     66     76     75
      4     66     67     77     76
      4     67     68     78     77
      4     68     69     79     78
      4     70     71     81     80
      4     71     72     82     81
      4     72     73     83     82
      4     73     74     84     83
      4     74     75     85     84
      4     75     76     86     85
      4     76     77     87     86
      4     77     78     88     87
      4     78     79     89     88
  
CELL_DATA 72
SCALARS Gamma double
LOOKUP_TABLE default
  0.80240252E+002
  0.41003710E+002
  0.20324579E+002
  0.30230284E+002
  0.43423174E+002
  0.37859980E+002
  0.29248693E+002
  0.40490246E+002
  0.44129981E+002
  0.80240252E+002
  0.41003710E+002
  0.20324579E+002
  0.30230284E+002
  0.43423174E+002
  0.37859980E+002
  0.29248693E+002
  0.40490246E+002
  0.44129981E+002
  0.57999852E+002
  0.30493256E+002
  0.16374694E+002
  0.23384678E+002
  0.31974723E+002
  0.28167340E+002
  0.22576558E+002
  0.31041105E+002
  0.33225043E+002
  0.35761694E+002
  0.19421458E+002
  0.11297451E+002
  0.15331624E+002
  0.19929530E+002
  0.17800053E+002
  0.14857698E+002
  0.20276385E+002
  0.21328000E+002
  0.15959946E+002
  0.89899100E+001
  0.56573961E+001
  0.72274289E+001
  0.89183685E+001
  0.81136264E+001
  0.70842443E+001
  0.95628548E+001
  0.98835952E+001
  0.32256505E+001
  0.18979344E+001
  0.12865983E+001
  0.15436262E+001
  0.18072758E+001
  0.16817938E+001
  0.15339126E+001
  0.20388992E+001
  0.20787311E+001
  0.37831218E-001
  0.23374740E-001
  0.16846978E-001
  0.18749696E-001
  0.20843277E-001
  0.19884976E-001
  0.19074689E-001
  0.25027292E-001
  0.25240302E-001
  0.00000000E+000
  0.00000000E+000
  0.00000000E+000
  0.00000000E+000
  0.00000000E+000
  0.00000000E+000
  0.00000000E+000
  0.00000000E+000
  0.00000000E+000
POINT_DATA 90
VECTORS Uconv double
  0.00000000E+000  0.00000000E+000  0.00000000E+000
  0.00000000E+000  0.00000000E+000  0.00000000E+000
  0.00000000E+000  0.00000000E+000  0.00000000E+000
  0.00000000E+000  0.00000000E+000  0.00000000E+000
  0.00000000E+000  0.00000000E+000  0.00000000E+000
  0.00000000E+000  0.00000000E+000  0.00000000E+000
  0.00000000E+000  0.00000000E+000  0.00000000E+000
  0.00000000E+000  0.00000000E+000  0.00000000E+000
  0.00000000E+000  0.00000000E+000  0.00000000E+000
  0.00000000E+000  0.00000000E+000  0.00000000E+000
  0.00000000E+000  0.00000000E+000  0.00000000E+000
  0.00000000E+000  0.00000000E+000  0.00000000E+000
  0.00000000E+000  0.00000000E+000  0.00000000E+000
  0.00000000E+000  0.00000000E+000  0.00000000E+000
  0.00000000E+000  0.00000000E+000  0.00000000E+000
  0.00000000E+000  0.00000000E+000  0.00000000E+000
  0.00000000E+000  0.00000000E+000  0.00000000E+000
  0.00000000E+000  0.00000000E+000  0.00000000E+000
  0.00000000E+000  0.00000000E+000  0.00000000E+000
  0.00000000E+000  0.00000000E+000  0.00000000E+000
  0.17176493E+002  0.50118057E-001 -0.19635381E+000
  0.17156367E+002 -0.10062137E+000 -0.49224476E+000
  0.17149105E+002 -0.99375348E-001 -0.12136697E+000
  0.17147037E+002 -0.11157557E+000 -0.70102382E-001
  0.17057606E+002 -0.32318355E+000 -0.26180691E-001
  0.17010939E+002 -0.43365947E+000  0.88693527E-001
  0.17089871E+002 -0.23989263E+000  0.15492880E+000
  0.17128560E+002 -0.13880332E+000  0.15819985E+000
  0.17138681E+002 -0.11168497E+000  0.19345963E+000
  0.17134461E+002  0.16865411E-001  0.14227923E+000
  0.17178273E+002  0.54927504E-001 -0.19489506E+000
  0.17167077E+002 -0.78510169E-001 -0.36968688E+000
  0.17164783E+002 -0.66548937E-001 -0.81130332E-001
  0.17164516E+002 -0.76299693E-001 -0.41989592E-001
  0.17102164E+002 -0.22168635E+000 -0.14596191E-001
  0.17069151E+002 -0.29797870E+000  0.59238896E-001
  0.17123156E+002 -0.16565929E+000  0.10265780E+000
  0.17147384E+002 -0.99437651E-001  0.11122838E+000
  0.17149533E+002 -0.88990909E-001  0.14876040E+000
  0.17137356E+002  0.20843422E-001  0.13778155E+000
  0.17180009E+002  0.59839033E-001 -0.19346564E+000
  0.17177413E+002 -0.55339516E-001 -0.24412225E+000
  0.17182337E+002 -0.30914999E-001 -0.37224817E-001
  0.17183849E+002 -0.37998769E-001 -0.10982460E-001
  0.17159226E+002 -0.96299480E-001 -0.28358567E-002
  0.17145939E+002 -0.12559685E+000  0.22079646E-001
  0.17164303E+002 -0.77206611E-001  0.40598016E-001
  0.17168240E+002 -0.57005853E-001  0.60326606E-001
  0.17160611E+002 -0.65922598E-001  0.10195263E+000
  0.17140217E+002  0.24808913E-001  0.13344877E+000
  0.17181702E+002  0.64846983E-001 -0.19206144E+000
  0.17187671E+002 -0.31728494E-001 -0.12495039E+000
  0.17200628E+002  0.50972832E-002  0.74329499E-002
  0.17202258E+002 -0.26119296E-002  0.18608472E-001
  0.17215411E+002  0.21844681E-001  0.64967819E-002
  0.17224716E+002  0.42943000E-001 -0.15171884E-001
  0.17206979E+002  0.11005956E-001 -0.21950519E-001
  0.17189753E+002 -0.14473922E-001  0.89854854E-002
  0.17171702E+002 -0.43097140E-001  0.55474140E-001
  0.17143019E+002  0.28730717E-001  0.12928765E+000
  0.17183350E+002  0.69950764E-001 -0.19067787E+000
  0.17158087E+002 -0.96618993E-001 -0.13505654E+000
  0.17218417E+002  0.39048806E-001  0.49860461E-001
  0.17217662E+002  0.25780486E-001  0.43401345E-001
  0.17258487E+002  0.10693393E+000  0.12203171E-001
  0.17288576E+002  0.17119333E+000 -0.45378182E-001
  0.17244661E+002  0.85180386E-001 -0.75822181E-001
  0.17210606E+002  0.25221775E-001 -0.39337305E-001
  0.17141706E+002 -0.11091142E+000  0.12897630E+000
  0.17145801E+002  0.32637570E-001  0.12528725E+000
  0.17184940E+002  0.75167353E-001 -0.18930182E+000
  0.17169762E+002 -0.70836626E-001 -0.45067190E-001
  0.17193368E+002 -0.19240029E-001 -0.28582796E-001
  0.17229093E+002  0.45746463E-001  0.61661753E-001
  0.17282758E+002  0.15025272E+000  0.14557670E-001
  0.17327801E+002  0.24328813E+000 -0.64510990E-001
  0.17272631E+002  0.13760854E+000 -0.11544219E+000
  0.17188455E+002 -0.27439453E-001  0.34849337E-001
  0.17153922E+002 -0.85804417E-001  0.83665579E-001
  0.17148539E+002  0.36497643E-001  0.12144922E+000
  0.17186465E+002  0.80470585E-001 -0.18792431E+000
  0.17181895E+002 -0.44951494E-001  0.10977474E-001
  0.17208941E+002  0.10622383E-001  0.88822391E-002
  0.17236172E+002  0.57099798E-001  0.72612210E-001
  0.17211568E+002 -0.96474166E-002 -0.24745772E-001
  0.17256629E+002  0.79516516E-001 -0.24624285E-001
  0.17289410E+002  0.16688026E+000 -0.13910514E+000
  0.17206400E+002  0.66907567E-002 -0.79593718E-002
  0.17165599E+002 -0.62478514E-001  0.44783342E-001
  0.17151232E+002  0.40303035E-001  0.11776431E+000
