<?xml version="1.0"?>
<VTKFile type="PolyData" version="0.1" byte_order="LittleEndian">
  <PolyData>
    <Piece NumberOfPoints="     10" NumberOfVerts="  0" NumberOfLines="      9"
           NumberOfStrips="  0" NumberOfPolys="      0">
      <Points>
        <DataArray type="Float32" NumberOfComponents="3" format="ascii">
                       0.19757                       0.12135                     101.06349
                       0.61553                       2.42305                     101.03357
                       1.03440                       4.72459                     101.00269
                       1.45393                       7.02600                     100.97114
                       1.87401                       9.32731                     100.93999
                       2.29984                      11.62867                     100.93944
                       2.72067                      13.92985                     100.91284
                       3.14443                      16.23044                     100.88362
                       3.56349                      18.53203                     100.87015
                       3.98234                      20.83365                     100.86145
        </DataArray>
      </Points>
      <PointData>
        <DataArray type="Float32" Name="TranslationalVelocity" NumberOfComponents="3" format="ascii">
                       1.73359                       0.21992                      -0.00417
                      -2.44793                       0.97812                      -0.11362
                      -6.61982                       1.73615                      -0.22982
                     -10.78393                       2.49395                      -0.34852
                     -14.94195                       3.25170                      -0.46578
                     -19.08863                       4.01960                      -0.57848
                     -23.23909                       4.77771                      -0.68232
                     -27.38844                       5.54112                      -0.77674
                     -31.53914                       6.29670                      -0.86037
                     -35.69234                       7.05253                      -0.93457
        </DataArray>
        <DataArray type="Float32" Name="RotationalVelocity" NumberOfComponents="3" format="ascii">
                      -0.03884                       0.03590                       1.81972
                      -0.04042                       0.04632                       1.81584
                      -0.04056                       0.05699                       1.81236
                      -0.03922                       0.06738                       1.80948
                      -0.03654                       0.07751                       1.80721
                      -0.02790                       0.09712                       1.80447
                      -0.02241                       0.10667                       1.80399
                      -0.01653                       0.11611                       1.80410
                      -0.01100                       0.12545                       1.80479
                      -0.00577                       0.13479                       1.80605
        </DataArray>
        <DataArray type="Float32" Name="TranslationalAcceleration" NumberOfComponents="3" format="ascii">
                       9.22760                      -6.67759                      -0.09435
                       8.82489                      -7.70367                       1.47955
                       8.43583                      -8.38900                       3.10202
                       8.01435                      -9.06116                       4.63074
                       7.56450                      -9.72057                       6.02346
                       7.95861                      -3.49604                       8.02673
                       7.45238                      -4.12013                       8.91380
                       6.92864                      -4.72341                       9.31406
                       6.42530                      -5.36113                       9.42668
                       5.92595                      -5.99669                       9.49295
        </DataArray>
        <DataArray type="Float32" Name="OrientationX" NumberOfComponents="3" format="ascii">
                      -0.00009                       0.01891                       0.99982
                       0.00003                       0.02165                       0.99977
                       0.00009                       0.02364                       0.99972
                       0.00010                       0.02488                       0.99969
                       0.00007                       0.02540                       0.99968
                      -0.00012                       0.02428                       0.99971
                      -0.00029                       0.02264                       0.99974
                      -0.00086                       0.00597                       0.99998
                      -0.00022                       0.00743                       0.99997
                       0.00240                      -0.00614                       0.99998
        </DataArray>
        <DataArray type="Float32" Name="OrientationY" NumberOfComponents="3" format="ascii">
                       0.98412                      -0.17749                       0.00344
                       0.98412                      -0.17748                       0.00382
                       0.98411                      -0.17749                       0.00411
                       0.98411                      -0.17749                       0.00431
                       0.98411                      -0.17751                       0.00444
                       0.98410                      -0.17754                       0.00443
                       0.98410                      -0.17755                       0.00430
                       0.98527                      -0.17097                       0.00187
                       0.98522                      -0.17126                       0.00149
                       0.97844                      -0.20650                      -0.00361
        </DataArray>
        <DataArray type="Float32" Name="OrientationZ" NumberOfComponents="3" format="ascii">
                       0.17752                       0.98394                      -0.01859
                       0.17753                       0.98389                      -0.02132
                       0.17753                       0.98384                      -0.02328
                       0.17755                       0.98381                      -0.02450
                       0.17757                       0.98379                      -0.02501
                       0.17759                       0.98381                      -0.02387
                       0.17760                       0.98385                      -0.02223
                       0.17098                       0.98526                      -0.00573
                       0.17127                       0.98520                      -0.00728
                       0.20652                       0.97843                       0.00552
        </DataArray>
      </PointData>
      <Lines>
        <DataArray type="Int32" Name="connectivity" format="ascii">
      0      1
      1      2
      2      3
      3      4
      4      5
      5      6
      6      7
      7      8
      8      9
        </DataArray>
        <DataArray type="Int32" Name="offsets" format="ascii">
      2
      4
      6
      8
     10
     12
     14
     16
     18
        </DataArray>
      </Lines>
    </Piece>
  </PolyData>
</VTKFile>
