<?xml version="1.0"?>
<VTKFile type="PolyData" version="0.1" byte_order="LittleEndian">
  <PolyData>
    <Piece NumberOfPoints="     10" NumberOfVerts="  0" NumberOfLines="      9"
           NumberOfStrips="  0" NumberOfPolys="      0">
      <Points>
        <DataArray type="Float32" NumberOfComponents="3" format="ascii">
                       0.02807                       0.09585                      15.12068
                       0.69604                       2.33756                      15.12781
                       1.36387                       4.57933                      15.13507
                       2.03180                       6.82106                      15.14157
                       2.69982                       9.06276                      15.14687
                       3.36189                      11.30637                      15.15178
                       4.03053                      13.54786                      15.15207
                       4.69911                      15.78935                      15.15058
                       5.36749                      18.03088                      15.14712
                       6.03558                      20.27247                      15.14162
        </DataArray>
      </Points>
      <PointData>
        <DataArray type="Float32" Name="TranslationalVelocity" NumberOfComponents="3" format="ascii">
                      -0.17896                       0.04826                       0.00113
                      -4.22182                       1.25352                       0.02612
                      -8.26272                       2.45797                       0.04945
                     -12.30181                       3.66210                       0.06879
                     -16.33936                       4.86595                       0.08203
                     -20.37850                       6.05923                       0.08689
                     -24.41346                       7.26354                       0.08174
                     -28.44780                       8.46752                       0.06581
                     -32.48186                       9.67101                       0.03847
                     -36.51595                      10.87387                      -0.00039
        </DataArray>
        <DataArray type="Float32" Name="RotationalVelocity" NumberOfComponents="3" format="ascii">
                       0.01173                       0.00209                       1.80418
                       0.01142                       0.00139                       1.80334
                       0.01026                       0.00090                       1.80256
                       0.00832                       0.00063                       1.80188
                       0.00567                       0.00057                       1.80129
                      -0.00135                       0.00095                       1.80043
                      -0.00553                       0.00134                       1.80015
                      -0.01003                       0.00182                       1.79996
                      -0.01448                       0.00239                       1.79988
                      -0.01905                       0.00300                       1.79989
        </DataArray>
        <DataArray type="Float32" Name="TranslationalAcceleration" NumberOfComponents="3" format="ascii">
                       0.14534                      -0.01391                       0.05744
                      -0.16667                      -0.98923                      -0.62971
                      -0.38165                      -1.64886                      -1.27796
                      -0.59400                      -2.30371                      -1.78292
                      -0.80477                      -2.95103                      -2.13419
                       0.96017                       3.04878                      -2.56888
                       0.74655                       2.44010                      -2.63812
                       0.53277                       1.85107                      -2.32126
                       0.32603                       1.22669                      -1.87136
                       0.12030                       0.60536                      -1.62324
        </DataArray>
        <DataArray type="Float32" Name="OrientationX" NumberOfComponents="3" format="ascii">
                      -0.00220                       0.00046                       1.00000
                      -0.00238                       0.00025                       1.00000
                      -0.00250                       0.00005                       1.00000
                      -0.00250                      -0.00001                       1.00000
                      -0.00241                      -0.00000                       1.00000
                      -0.00025                      -0.00020                       1.00000
                      -0.00023                      -0.00030                       1.00000
                      -0.00019                      -0.00029                       1.00000
                      -0.00013                      -0.00021                       1.00000
                      -0.00040                      -0.00092                       1.00000
        </DataArray>
        <DataArray type="Float32" Name="OrientationY" NumberOfComponents="3" format="ascii">
                       0.95775                      -0.28759                       0.00224
                       0.95775                      -0.28760                       0.00235
                       0.95775                      -0.28760                       0.00240
                       0.95774                      -0.28763                       0.00239
                       0.95773                      -0.28766                       0.00231
                       0.95731                      -0.28906                       0.00018
                       0.95741                      -0.28874                       0.00014
                       0.95755                      -0.28826                       0.00010
                       0.95774                      -0.28764                       0.00007
                       0.95770                      -0.28776                       0.00012
        </DataArray>
        <DataArray type="Float32" Name="OrientationZ" NumberOfComponents="3" format="ascii">
                       0.28759                       0.95775                       0.00019
                       0.28760                       0.95775                       0.00045
                       0.28760                       0.95775                       0.00067
                       0.28763                       0.95774                       0.00073
                       0.28766                       0.95773                       0.00070
                       0.28906                       0.95731                       0.00027
                       0.28874                       0.95741                       0.00035
                       0.28826                       0.95755                       0.00034
                       0.28764                       0.95774                       0.00024
                       0.28776                       0.95770                       0.00100
        </DataArray>
      </PointData>
      <Lines>
        <DataArray type="Int32" Name="connectivity" format="ascii">
      0      1
      1      2
      2      3
      3      4
      4      5
      5      6
      6      7
      7      8
      8      9
        </DataArray>
        <DataArray type="Int32" Name="offsets" format="ascii">
      2
      4
      6
      8
     10
     12
     14
     16
     18
        </DataArray>
      </Lines>
    </Piece>
  </PolyData>
</VTKFile>
