# vtk DataFile Version 2.0
BldPointCP.BldC
ASCII
 
DATASET POLYDATA
POINTS 9 double
  0.90284387E+001 -0.73604390E+001  0.10621664E+003
  0.21622123E+002 -0.18261465E+002  0.94426767E+002
  0.31800326E+002 -0.27012802E+002  0.82361883E+002
  0.38606712E+002 -0.32791570E+002  0.70120624E+002
  0.40702470E+002 -0.34486577E+002  0.58065041E+002
  0.38501519E+002 -0.32540849E+002  0.46040106E+002
  0.31676468E+002 -0.26776049E+002  0.33763836E+002
  0.21478332E+002 -0.18191133E+002  0.21582898E+002
  0.87415685E+001 -0.74131209E+001  0.98432697E+001
  
POINT_DATA 9
SCALARS Gamma_LL double
LOOKUP_TABLE default
  0.62755111E+002
  0.11198875E+003
  0.90260546E+002
  0.98258496E+002
  0.10534246E+003
  0.10763618E+003
  0.10316881E+003
  0.11650358E+003
  0.33769070E+002
VECTORS Vind_CP double
 -0.17279253E+000 -0.28803015E+000 -0.46621596E+000
 -0.22605302E+000  0.17288343E+000 -0.35500333E+000
 -0.36051896E+000  0.29910723E+000 -0.29260912E+000
 -0.70922141E+000  0.54449015E+000 -0.23786209E+000
 -0.95747344E+000  0.66370670E+000  0.25093047E-001
 -0.80897793E+000  0.61851388E+000  0.32138625E+000
 -0.47110576E+000  0.38100011E+000  0.39924728E+000
 -0.33879065E+000  0.24565948E+000  0.39683226E+000
 -0.11219394E+000 -0.29766095E-001  0.65111343E-001
VECTORS Vtot_CP double
  0.85954470E+000 -0.16789386E+002  0.60201308E+000
 -0.18280817E+002 -0.38597468E+002  0.12725027E+001
 -0.34435721E+002 -0.55823298E+002  0.45736472E+000
 -0.44911168E+002 -0.67805829E+002  0.18087187E+000
 -0.47397671E+002 -0.72512688E+002  0.68888962E+000
 -0.43475916E+002 -0.69284811E+002  0.10534096E+001
 -0.32678129E+002 -0.57140652E+002  0.10688714E+001
 -0.16517983E+002 -0.38711606E+002  0.67140791E+000
  0.36200860E+001 -0.15896973E+002  0.53975010E-001
VECTORS Vstr_CP double
  0.16167663E+002  0.16501356E+002 -0.10682290E+001
  0.35254764E+002  0.38770352E+002 -0.16275061E+001
  0.51275202E+002  0.56122405E+002 -0.74997384E+000
  0.61401946E+002  0.68350319E+002 -0.41873395E+000
  0.63640197E+002  0.73176395E+002 -0.66379657E+000
  0.59866938E+002  0.69903325E+002 -0.73202333E+000
  0.49407023E+002  0.57521652E+002 -0.66962414E+000
  0.33379193E+002  0.38957265E+002 -0.27457565E+000
  0.13467720E+002  0.15867206E+002  0.11136333E-001
VECTORS Vwnd_CP double
  0.17200000E+002  0.00000000E+000  0.00000000E+000
  0.17200000E+002  0.00000000E+000  0.00000000E+000
  0.17200000E+002  0.00000000E+000  0.00000000E+000
  0.17200000E+002  0.00000000E+000  0.00000000E+000
  0.17200000E+002  0.00000000E+000  0.00000000E+000
  0.17200000E+002  0.00000000E+000  0.00000000E+000
  0.17200000E+002  0.00000000E+000  0.00000000E+000
  0.17200000E+002  0.00000000E+000  0.00000000E+000
  0.17200000E+002  0.00000000E+000  0.00000000E+000
VECTORS Tangent double
 -0.41427747E+000 -0.91014919E+000 -0.16232930E-002
 -0.64018788E+000 -0.76818713E+000  0.69289706E-002
 -0.65876129E+000 -0.75233532E+000  0.50122464E-002
 -0.65863309E+000 -0.75246401E+000 -0.60789925E-003
 -0.65065398E+000 -0.75937434E+000 -0.29100974E-004
 -0.65221656E+000 -0.75803148E+000  0.13555707E-002
 -0.65246882E+000 -0.75781459E+000  0.12209088E-002
 -0.64682163E+000 -0.76264108E+000  0.60482477E-003
 -0.64630875E+000 -0.76304323E+000 -0.70736659E-002
VECTORS Normal double
  0.48834671E+000 -0.22378774E+000  0.84346698E+000
  0.49137296E+000 -0.40253140E+000  0.77234778E+000
  0.52976343E+000 -0.45912140E+000  0.71313270E+000
  0.68070450E+000 -0.59616578E+000  0.42570853E+000
  0.75929167E+000 -0.65058258E+000 -0.14780406E-001
  0.68207694E+000 -0.58764300E+000 -0.43525481E+000
  0.53668552E+000 -0.46321572E+000 -0.70526580E+000
  0.48716885E+000 -0.41379424E+000 -0.76905191E+000
  0.39508884E+000 -0.32668657E+000 -0.85859227E+000
VECTORS Orth double
  0.76804406E+000 -0.34863663E+000 -0.53717858E+000
  0.59051850E+000 -0.49785240E+000 -0.63516210E+000
  0.53421369E+000 -0.47243953E+000 -0.70101114E+000
  0.32069276E+000 -0.27997193E+000 -0.90486014E+000
 -0.11204928E-001  0.96390260E-002 -0.99989076E+000
 -0.33073344E+000  0.28295579E+000 -0.90030629E+000
 -0.53502625E+000  0.45950869E+000 -0.70894193E+000
 -0.58676085E+000  0.49714475E+000 -0.63918604E+000
 -0.65283215E+000  0.55771042E+000 -0.51261025E+000
