# vtk DataFile Version 2.0

ASCII
 
DATASET POLYDATA
POINTS 150 double
  0.22229528E+000  0.46724487E-001  0.11318103E+003
 -0.19897869E+002 -0.47954966E+001  0.10118847E+003
 -0.34052335E+002 -0.82484380E+001  0.89019141E+002
 -0.45674385E+002 -0.11151404E+002  0.76650521E+002
 -0.51505677E+002 -0.12625434E+002  0.64383641E+002
 -0.51517602E+002 -0.12642679E+002  0.52138568E+002
 -0.45680430E+002 -0.11182381E+002  0.39876987E+002
 -0.34047764E+002 -0.82439783E+001  0.27498909E+002
 -0.19982126E+002 -0.48094661E+001  0.15240576E+002
  0.17570310E-003  0.41345254E-004  0.30001853E+001
 -0.41529416E+001 -0.10041319E+001  0.11312623E+003
 -0.20945505E+002 -0.50942550E+000  0.10118565E+003
 -0.34800396E+002 -0.52432755E+001  0.89020293E+002
 -0.46239825E+002 -0.87619415E+001  0.76641865E+002
 -0.52004681E+002 -0.10425549E+002  0.64378287E+002
 -0.52027164E+002 -0.10400215E+002  0.52143669E+002
 -0.46256900E+002 -0.86467945E+001  0.39877611E+002
 -0.34824088E+002 -0.49074887E+001  0.27503463E+002
 -0.21013864E+002 -0.42933932E+000  0.15243057E+002
 -0.10434347E+001  0.43773543E+001  0.30031618E+001
 -0.40290941E+001 -0.93420678E+000  0.11312810E+003
 -0.20800214E+002 -0.12332429E+000  0.10118202E+003
 -0.34735799E+002 -0.45953253E+001  0.88992990E+002
 -0.46267288E+002 -0.78970983E+001  0.76626521E+002
 -0.52079011E+002 -0.94488579E+001  0.64358910E+002
 -0.52097883E+002 -0.94211612E+001  0.52114812E+002
 -0.46282786E+002 -0.77804382E+001  0.39845336E+002
 -0.34758693E+002 -0.42640654E+001  0.27482754E+002
 -0.20858519E+002 -0.42879274E-001  0.15235175E+002
 -0.79487770E+000  0.43948608E+001  0.30068546E+001
 -0.39026005E+001 -0.86345052E+000  0.11312969E+003
 -0.20644161E+002  0.26107849E+000  0.10118181E+003
 -0.34656650E+002 -0.39472274E+001  0.88965287E+002
 -0.46278201E+002 -0.70302351E+001  0.76613168E+002
 -0.52136036E+002 -0.84693786E+001  0.64341587E+002
 -0.52151579E+002 -0.84393948E+001  0.52086821E+002
 -0.46291695E+002 -0.69115829E+001  0.39813999E+002
 -0.34678693E+002 -0.36194112E+001  0.27465071E+002
 -0.20693960E+002  0.34277439E+000  0.15229453E+002
 -0.54625261E+000  0.44103769E+001  0.30145831E+001
 -0.37732443E+001 -0.79219326E+000  0.11313090E+003
 -0.20479394E+002  0.64529863E+000  0.10116976E+003
 -0.34562411E+002 -0.32995029E+001  0.88936815E+002
 -0.46269799E+002 -0.61619800E+001  0.76600359E+002
 -0.52172403E+002 -0.74877063E+001  0.64325801E+002
 -0.52185029E+002 -0.74555279E+001  0.52060388E+002
 -0.46280692E+002 -0.60409617E+001  0.39785493E+002
 -0.34582673E+002 -0.29742547E+001  0.27451937E+002
 -0.20520164E+002  0.72736020E+000  0.15225659E+002
 -0.29758503E+000  0.44242973E+001  0.30226657E+001
 -0.36409103E+001 -0.71997852E+000  0.11313185E+003
 -0.20304018E+002  0.10274410E+001  0.10115914E+003
 -0.34451132E+002 -0.26530234E+001  0.88906263E+002
 -0.46235241E+002 -0.52936239E+001  0.76584415E+002
 -0.52180717E+002 -0.65049183E+001  0.64309600E+002
 -0.52193106E+002 -0.64704041E+001  0.52036463E+002
 -0.46247047E+002 -0.51693832E+001  0.39761260E+002
 -0.34474405E+002 -0.23294076E+001  0.27439151E+002
 -0.20337276E+002  0.11108189E+001  0.15222845E+002
 -0.48810022E-001  0.44363653E+001  0.30277684E+001
 -0.35053285E+001 -0.64659082E+000  0.11313290E+003
 -0.20118089E+002  0.14077127E+001  0.10114799E+003
 -0.34328721E+002 -0.20080975E+001  0.88879301E+002
 -0.46178386E+002 -0.44252377E+001  0.76567630E+002
 -0.52159137E+002 -0.55218745E+001  0.64294090E+002
 -0.52169711E+002 -0.54852934E+001  0.52016209E+002
 -0.46188561E+002 -0.42978702E+001  0.39742349E+002
 -0.34345762E+002 -0.16845072E+001  0.27435350E+002
 -0.20145001E+002  0.14928489E+001  0.15222213E+002
  0.20026570E+000  0.44468851E+001  0.30312521E+001
 -0.33663060E+001 -0.57123763E+000  0.11313364E+003
 -0.19923972E+002  0.17866307E+001  0.10111393E+003
 -0.34189212E+002 -0.13648954E+001  0.88850482E+002
 -0.46094134E+002 -0.35582621E+001  0.76547533E+002
 -0.52101031E+002 -0.45403005E+001  0.64277411E+002
 -0.52110184E+002 -0.45017612E+001  0.52000825E+002
 -0.46102405E+002 -0.34276416E+001  0.39730773E+002
 -0.34199586E+002 -0.10410505E+001  0.27437076E+002
 -0.19947688E+002  0.18727970E+001  0.15217836E+002
  0.44982638E+000  0.44560504E+001  0.30346657E+001
 -0.32234545E+001 -0.49473859E+000  0.11313488E+003
 -0.19735693E+002  0.21636176E+001  0.10109932E+003
 -0.34028640E+002 -0.72360236E+000  0.88816266E+002
 -0.45995385E+002 -0.26936559E+001  0.76533453E+002
 -0.52007167E+002 -0.35615408E+001  0.64260376E+002
 -0.52015060E+002 -0.35212233E+001  0.51989987E+002
 -0.45999892E+002 -0.25599435E+001  0.39718579E+002
 -0.34037278E+002 -0.39914524E+000  0.27443209E+002
 -0.19748707E+002  0.22513866E+001  0.15205872E+002
  0.69997697E+000  0.44639939E+001  0.30378386E+001
 -0.30765293E+001 -0.41711387E+000  0.11313652E+003
 -0.19521683E+002  0.25398484E+001  0.10106069E+003
 -0.33852715E+002 -0.84717361E-001  0.88782473E+002
 -0.45870129E+002 -0.18313744E+001  0.76516535E+002
 -0.51883790E+002 -0.25870421E+001  0.64245368E+002
 -0.51893284E+002 -0.25452925E+001  0.51981833E+002
 -0.45865908E+002 -0.16946488E+001  0.39718590E+002
 -0.33859334E+002  0.24074472E+000  0.27452630E+002
 -0.19529826E+002  0.26292652E+001  0.15210149E+002
  0.95077641E+000  0.44706204E+001  0.30408129E+001
 -0.29252772E+001 -0.33845100E+000  0.11313842E+003
 -0.19299518E+002  0.29143617E+001  0.10102238E+003
 -0.33662908E+002  0.55191972E+000  0.88750844E+002
 -0.45714683E+002 -0.97193777E+000  0.76492517E+002
 -0.51737088E+002 -0.16168974E+001  0.64230942E+002
 -0.51741070E+002 -0.15738676E+001  0.51978197E+002
 -0.45709416E+002 -0.83256245E+000  0.39723477E+002
 -0.33667453E+002  0.87854191E+000  0.27465282E+002
 -0.19303363E+002  0.30054669E+001  0.15218689E+002
  0.12025142E+001  0.44766060E+001  0.30424491E+001
 -0.27695121E+001 -0.25888404E+000  0.11314008E+003
 -0.19069309E+002  0.32883215E+001  0.10099042E+003
 -0.33460284E+002  0.11863087E+001  0.88722752E+002
 -0.45539478E+002 -0.11550711E+000  0.76469866E+002
 -0.51565375E+002 -0.65024408E+000  0.64218184E+002
 -0.51567608E+002 -0.60645027E+000  0.51977567E+002
 -0.45533928E+002  0.26144627E-001  0.39731518E+002
 -0.33462900E+002  0.15141189E+001  0.27478801E+002
 -0.19070057E+002  0.33801426E+001  0.15223382E+002
  0.14544464E+001  0.44810163E+001  0.30447700E+001
 -0.26089648E+001 -0.17865797E+000  0.11314086E+003
 -0.18831056E+002  0.36609220E+001  0.10096343E+003
 -0.33245299E+002  0.18183931E+001  0.88699472E+002
 -0.45343025E+002  0.73758593E+000  0.76448924E+002
 -0.51378200E+002  0.31329133E+000  0.64208823E+002
 -0.51378888E+002  0.35735658E+000  0.51978857E+002
 -0.45338696E+002  0.88122454E+000  0.39742829E+002
 -0.33247108E+002  0.21473614E+001  0.27492157E+002
 -0.18829413E+002  0.37524719E+001  0.15226380E+002
  0.17065412E+001  0.44840617E+001  0.30473594E+001
 -0.24433243E+001 -0.97968340E-001  0.11314055E+003
 -0.18586492E+002  0.40306621E+001  0.10092086E+003
 -0.33022565E+002  0.24485634E+001  0.88684431E+002
 -0.45132677E+002  0.15876053E+001  0.76433378E+002
 -0.51169819E+002  0.12732129E+001  0.64200986E+002
 -0.51169685E+002  0.13172303E+001  0.51983506E+002
 -0.45129628E+002  0.17326128E+001  0.39753756E+002
 -0.33037467E+002  0.27801825E+001  0.27485976E+002
 -0.18582546E+002  0.41234147E+001  0.15237580E+002
  0.19585955E+001  0.44860701E+001  0.30488093E+001
 -0.22735232E+001 -0.17045832E-001  0.11313961E+003
 -0.18335494E+002  0.44005458E+001  0.10089785E+003
 -0.32807810E+002  0.30799890E+001  0.88693330E+002
 -0.44910828E+002  0.24356198E+001  0.76422876E+002
 -0.50952831E+002  0.22310955E+001  0.64196983E+002
 -0.50951702E+002  0.22749592E+001  0.51986946E+002
 -0.44907246E+002  0.25810583E+001  0.39762614E+002
 -0.32809216E+002  0.34102461E+001  0.27485801E+002
 -0.18328777E+002  0.44924988E+001  0.15243975E+002
  0.22105225E+001  0.44866270E+001  0.30506576E+001
  
POLYGONS 126 630
      4      0      1     11     10
      4      1      2     12     11
      4      2      3     13     12
      4      3      4     14     13
      4      4      5     15     14
      4      5      6     16     15
      4      6      7     17     16
      4      7      8     18     17
      4      8      9     19     18
      4     10     11     21     20
      4     11     12     22     21
      4     12     13     23     22
      4     13     14     24     23
      4     14     15     25     24
      4     15     16     26     25
      4     16     17     27     26
      4     17     18     28     27
      4     18     19     29     28
      4     20     21     31     30
      4     21     22     32     31
      4     22     23     33     32
      4     23     24     34     33
      4     24     25     35     34
      4     25     26     36     35
      4     26     27     37     36
      4     27     28     38     37
      4     28     29     39     38
      4     30     31     41     40
      4     31     32     42     41
      4     32     33     43     42
      4     33     34     44     43
      4     34     35     45     44
      4     35     36     46     45
      4     36     37     47     46
      4     37     38     48     47
      4     38     39     49     48
      4     40     41     51     50
      4     41     42     52     51
      4     42     43     53     52
      4     43     44     54     53
      4     44     45     55     54
      4     45     46     56     55
      4     46     47     57     56
      4     47     48     58     57
      4     48     49     59     58
      4     50     51     61     60
      4     51     52     62     61
      4     52     53     63     62
      4     53     54     64     63
      4     54     55     65     64
      4     55     56     66     65
      4     56     57     67     66
      4     57     58     68     67
      4     58     59     69     68
      4     60     61     71     70
      4     61     62     72     71
      4     62     63     73     72
      4     63     64     74     73
      4     64     65     75     74
      4     65     66     76     75
      4     66     67     77     76
      4     67     68     78     77
      4     68     69     79     78
      4     70     71     81     80
      4     71     72     82     81
      4     72     73     83     82
      4     73     74     84     83
      4     74     75     85     84
      4     75     76     86     85
      4     76     77     87     86
      4     77     78     88     87
      4     78     79     89     88
      4     80     81     91     90
      4     81     82     92     91
      4     82     83     93     92
      4     83     84     94     93
      4     84     85     95     94
      4     85     86     96     95
      4     86     87     97     96
      4     87     88     98     97
      4     88     89     99     98
      4     90     91    101    100
      4     91     92    102    101
      4     92     93    103    102
      4     93     94    104    103
      4     94     95    105    104
      4     95     96    106    105
      4     96     97    107    106
      4     97     98    108    107
      4     98     99    109    108
      4    100    101    111    110
      4    101    102    112    111
      4    102    103    113    112
      4    103    104    114    113
      4    104    105    115    114
      4    105    106    116    115
      4    106    107    117    116
      4    107    108    118    117
      4    108    109    119    118
      4    110    111    121    120
      4    111    112    122    121
      4    112    113    123    122
      4    113    114    124    123
      4    114    115    125    124
      4    115    116    126    125
      4    116    117    127    126
      4    117    118    128    127
      4    118    119    129    128
      4    120    121    131    130
      4    121    122    132    131
      4    122    123    133    132
      4    123    124    134    133
      4    124    125    135    134
      4    125    126    136    135
      4    126    127    137    136
      4    127    128    138    137
      4    128    129    139    138
      4    130    131    141    140
      4    131    132    142    141
      4    132    133    143    142
      4    133    134    144    143
      4    134    135    145    144
      4    135    136    146    145
      4    136    137    147    146
      4    137    138    148    147
      4    138    139    149    148
  
CELL_DATA 126
SCALARS Gamma double
LOOKUP_TABLE default
 -0.47285441E+001
 -0.16045162E+003
 -0.14419142E+003
 -0.11671544E+003
 -0.10500911E+003
 -0.97698906E+002
 -0.11170522E+003
 -0.14576098E+003
 -0.67200707E+002
 -0.47285441E+001
 -0.16045162E+003
 -0.14419142E+003
 -0.11671544E+003
 -0.10500911E+003
 -0.97698906E+002
 -0.11170522E+003
 -0.14576098E+003
 -0.67200707E+002
 -0.48659957E+001
 -0.16100426E+003
 -0.14412127E+003
 -0.11908272E+003
 -0.11019902E+003
 -0.10289716E+003
 -0.11562099E+003
 -0.14786472E+003
 -0.69415513E+002
 -0.50095155E+001
 -0.16144714E+003
 -0.14392381E+003
 -0.12148782E+003
 -0.11515820E+003
 -0.10810995E+003
 -0.11885418E+003
 -0.14990370E+003
 -0.71660577E+002
 -0.51494908E+001
 -0.16153997E+003
 -0.14340084E+003
 -0.12383816E+003
 -0.11906972E+003
 -0.11311480E+003
 -0.12183001E+003
 -0.15165461E+003
 -0.73803696E+002
 -0.51346537E+001
 -0.15665929E+003
 -0.13846815E+003
 -0.12263195E+003
 -0.11920674E+003
 -0.11390880E+003
 -0.12094731E+003
 -0.14870566E+003
 -0.73654135E+002
 -0.46587266E+001
 -0.13835549E+003
 -0.12171970E+003
 -0.11050393E+003
 -0.10856606E+003
 -0.10380919E+003
 -0.10921629E+003
 -0.13273300E+003
 -0.66919081E+002
 -0.38266154E+001
 -0.11048758E+003
 -0.96801330E+002
 -0.90032760E+002
 -0.89688879E+002
 -0.85493586E+002
 -0.89374969E+002
 -0.10715760E+003
 -0.54436325E+002
 -0.28342566E+001
 -0.79388323E+002
 -0.69385444E+002
 -0.66057483E+002
 -0.66650169E+002
 -0.63428619E+002
 -0.65857825E+002
 -0.77955958E+002
 -0.39714610E+002
 -0.17915563E+001
 -0.48619196E+002
 -0.42402214E+002
 -0.41280658E+002
 -0.42145739E+002
 -0.40220134E+002
 -0.41313394E+002
 -0.48317845E+002
 -0.24714688E+002
 -0.81856091E+000
 -0.21541708E+002
 -0.18744617E+002
 -0.18631326E+002
 -0.19216129E+002
 -0.18418026E+002
 -0.18723285E+002
 -0.21655029E+002
 -0.11135103E+002
 -0.16983547E+000
 -0.43158211E+001
 -0.37588562E+001
 -0.38076947E+001
 -0.39630860E+001
 -0.38217750E+001
 -0.38456670E+001
 -0.43977668E+001
 -0.22764939E+001
 -0.20358333E-002
 -0.50129804E-001
 -0.43769850E-001
 -0.45116199E-001
 -0.47341231E-001
 -0.45934438E-001
 -0.45782683E-001
 -0.51804677E-001
 -0.27059359E-001
 -0.00000000E+000
 -0.00000000E+000
 -0.00000000E+000
 -0.00000000E+000
 -0.00000000E+000
 -0.00000000E+000
 -0.00000000E+000
 -0.00000000E+000
 -0.00000000E+000
POINT_DATA 150
VECTORS Uconv double
  0.00000000E+000  0.00000000E+000  0.00000000E+000
  0.00000000E+000  0.00000000E+000  0.00000000E+000
  0.00000000E+000  0.00000000E+000  0.00000000E+000
  0.00000000E+000  0.00000000E+000  0.00000000E+000
  0.00000000E+000  0.00000000E+000  0.00000000E+000
  0.00000000E+000  0.00000000E+000  0.00000000E+000
  0.00000000E+000  0.00000000E+000  0.00000000E+000
  0.00000000E+000  0.00000000E+000  0.00000000E+000
  0.00000000E+000  0.00000000E+000  0.00000000E+000
  0.00000000E+000  0.00000000E+000  0.00000000E+000
  0.00000000E+000  0.00000000E+000  0.00000000E+000
  0.00000000E+000  0.00000000E+000  0.00000000E+000
  0.00000000E+000  0.00000000E+000  0.00000000E+000
  0.00000000E+000  0.00000000E+000  0.00000000E+000
  0.00000000E+000  0.00000000E+000  0.00000000E+000
  0.00000000E+000  0.00000000E+000  0.00000000E+000
  0.00000000E+000  0.00000000E+000  0.00000000E+000
  0.00000000E+000  0.00000000E+000  0.00000000E+000
  0.00000000E+000  0.00000000E+000  0.00000000E+000
  0.00000000E+000  0.00000000E+000  0.00000000E+000
  0.17139596E+002 -0.25816153E+000 -0.50960891E+000
  0.16349715E+002  0.31578501E+000  0.26246275E+001
  0.15452011E+002  0.26079340E+000  0.16609351E+001
  0.15105943E+002  0.88098175E-001  0.12386056E+001
  0.14887251E+002  0.30701825E-001  0.45849519E+000
  0.15000019E+002  0.24544463E-001 -0.35637792E+000
  0.15363067E+002  0.49579896E-001 -0.10362719E+001
  0.15651973E+002  0.17971698E+000 -0.14926478E+001
  0.16222734E+002  0.30974164E+000 -0.73262241E+000
  0.16980776E+002 -0.52486683E-001  0.41479577E+000
  0.17134642E+002 -0.26072332E+000 -0.52142915E+000
  0.16444718E+002  0.26971053E+000  0.25840998E+001
  0.15541630E+002  0.25267647E+000  0.15748258E+001
  0.15060514E+002  0.10281958E+000  0.12554765E+001
  0.14664292E+002  0.44324788E-001  0.49178526E+000
  0.14764284E+002  0.35539624E-001 -0.40046440E+000
  0.15291554E+002  0.62761793E-001 -0.10742157E+001
  0.15725874E+002  0.18031038E+000 -0.14238342E+001
  0.16320400E+002  0.27261957E+000 -0.66124513E+000
  0.16973483E+002 -0.74105877E-001  0.42950903E+000
  0.17129149E+002 -0.26273262E+000 -0.53642858E+000
  0.16527584E+002  0.22459751E+000  0.24691736E+001
  0.15666674E+002  0.23327459E+000  0.14380469E+001
  0.15092356E+002  0.11432689E+000  0.12253504E+001
  0.14527122E+002  0.62610260E-001  0.50705911E+000
  0.14608806E+002  0.52362344E-001 -0.42896704E+000
  0.15287162E+002  0.75265527E-001 -0.10736002E+001
  0.15824960E+002  0.17376547E+000 -0.13005371E+001
  0.16417641E+002  0.23321804E+000 -0.55672890E+000
  0.16965487E+002 -0.87949180E-001  0.43300753E+000
  0.17123374E+002 -0.26475585E+000 -0.55188849E+000
  0.16607411E+002  0.17734652E+000  0.23216531E+001
  0.15824638E+002  0.20196864E+000  0.12826787E+001
  0.15217973E+002  0.11502723E+000  0.11394066E+001
  0.14529517E+002  0.79879392E-001  0.49504942E+000
  0.14591628E+002  0.70265277E-001 -0.43530846E+000
  0.15371609E+002  0.81724572E-001 -0.10211947E+001
  0.15557395E+002  0.12043757E+000 -0.15554241E+001
  0.16512435E+002  0.19268015E+000 -0.45949696E+000
  0.16956855E+002 -0.10479698E+000  0.44704854E+000
  0.17117172E+002 -0.26657287E+000 -0.56679760E+000
  0.16785800E+002  0.98915646E-001  0.27234001E+001
  0.15510109E+002  0.14274184E+000  0.15770212E+001
  0.15444362E+002  0.10202964E+000  0.99283342E+000
  0.14717517E+002  0.87623697E-001  0.44983852E+000
  0.14756670E+002  0.79288267E-001 -0.41090597E+000
  0.15551206E+002  0.76888290E-001 -0.91279833E+000
  0.15737293E+002  0.10581112E+000 -0.13744882E+001
  0.16587429E+002  0.16103556E+000 -0.31145736E+000
  0.16947538E+002 -0.11966830E+000  0.46136471E+000
  0.17110695E+002 -0.26856215E+000 -0.58289471E+000
  0.16645272E+002  0.97537293E-001  0.19435911E+001
  0.15744664E+002  0.10434630E+000  0.13522590E+001
  0.15762413E+002  0.68908150E-001  0.79049877E+000
  0.15099341E+002  0.71577689E-001  0.36954612E+000
  0.15113895E+002  0.66514475E-001 -0.35093253E+000
  0.15818906E+002  0.52682543E-001 -0.75288668E+000
  0.15942158E+002  0.78408717E-001 -0.11689763E+001
  0.16682169E+002  0.11992748E+000 -0.26578499E+000
  0.16937518E+002 -0.13281582E+000  0.47565215E+000
  0.17103836E+002 -0.27049365E+000 -0.59935032E+000
  0.16762556E+002  0.48282713E-001  0.12026359E+001
  0.15997471E+002  0.52345346E-001  0.10973410E+001
  0.15000531E+002 -0.11372382E-001  0.14169478E+001
  0.15643684E+002  0.23401953E-001  0.25926612E+000
  0.15632189E+002  0.22437248E-001 -0.25736117E+000
  0.15211936E+002 -0.30757991E-001 -0.12702240E+001
  0.16163404E+002  0.39631987E-001 -0.94670368E+000
  0.16768893E+002  0.73574493E-001 -0.29854275E+000
  0.16926759E+002 -0.14438869E+000  0.49060798E+000
  0.17096586E+002 -0.27238664E+000 -0.61761934E+000
  0.16814035E+002 -0.15422112E-001  0.79170646E+000
  0.16258490E+002 -0.93912612E-002  0.83435400E+000
  0.15534672E+002 -0.52876083E-001  0.10724513E+001
  0.15802628E+002 -0.70117170E-001  0.36218243E+000
  0.15489696E+002 -0.77984473E-001 -0.35370889E+000
  0.15682614E+002 -0.65197661E-001 -0.97286405E+000
  0.16400739E+002 -0.10539313E-001 -0.74480322E+000
  0.16845868E+002  0.32218131E-001 -0.19202000E+000
  0.16915626E+002 -0.17361101E+000  0.52938576E+000
  0.17088903E+002 -0.27427829E+000 -0.63466434E+000
  0.16881779E+002 -0.82755038E-001  0.47500453E+000
  0.16518509E+002 -0.77172471E-001  0.57175664E+000
  0.16066284E+002 -0.11407392E+000  0.73402800E+000
  0.16267411E+002 -0.15898999E+000  0.19135666E+000
  0.16283624E+002 -0.15389791E+000 -0.18345046E+000
  0.16157212E+002 -0.11483376E+000 -0.67051353E+000
  0.16629582E+002 -0.65909300E-001 -0.50701924E+000
  0.16911796E+002 -0.11787596E-002  0.24775807E+000
  0.16903189E+002 -0.17817044E+000  0.54079968E+000
  0.17081145E+002 -0.27683801E+000 -0.65568153E+000
  0.16906119E+002 -0.12446151E+000  0.64328565E-001
  0.16769822E+002 -0.14754177E+000  0.31685058E+000
  0.16554380E+002 -0.18216046E+000  0.40229420E+000
  0.17000468E+002 -0.24981856E+000  0.29428172E-001
  0.16991245E+002 -0.24107096E+000 -0.29935362E-001
  0.16595786E+002 -0.17439089E+000 -0.37453049E+000
  0.16852304E+002 -0.12524977E+000 -0.27515096E+000
  0.16970372E+002 -0.37089812E-001  0.23210768E+000
  0.16889945E+002 -0.18207769E+000  0.55368959E+000
  0.17072159E+002 -0.27815193E+000 -0.67307705E+000
  0.16949653E+002 -0.16604332E+000 -0.24805207E+000
  0.17005218E+002 -0.21645382E+000  0.93884539E-001
  0.16968870E+002 -0.25183903E+000  0.11160208E+000
  0.17574141E+002 -0.33179407E+000 -0.10248071E+000
  0.17548280E+002 -0.32063878E+000  0.96760396E-001
  0.16974835E+002 -0.23149608E+000 -0.11139969E+000
  0.17067555E+002 -0.18692812E+000 -0.73174601E-001
  0.17025106E+002 -0.71072769E-001  0.22856056E+000
  0.16875827E+002 -0.19627589E+000  0.60204075E+000
  0.17062710E+002 -0.27964748E+000 -0.69105576E+000
  0.16980335E+002 -0.20653038E+000 -0.49704283E+000
  0.17222109E+002 -0.28156294E+000 -0.13281468E+000
  0.17299343E+002 -0.30742901E+000 -0.12199407E+000
  0.17963352E+002 -0.39714071E+000 -0.19666819E+000
  0.17928321E+002 -0.38452112E+000  0.19040202E+000
  0.17279583E+002 -0.28132241E+000  0.10483194E+000
  0.17261103E+002 -0.23631584E+000  0.13788593E+000
  0.17069175E+002 -0.10116297E+000  0.25197291E+000
  0.16860608E+002 -0.19735201E+000  0.61177054E+000
  0.17052567E+002 -0.28078051E+000 -0.71054966E+000
  0.17001356E+002 -0.29884828E+000 -0.12124892E+001
  0.17415074E+002 -0.32979618E+000 -0.33749463E+000
  0.17543903E+002 -0.34888542E+000 -0.29909881E+000
  0.18180386E+002 -0.43435939E+000 -0.25353624E+000
  0.18142391E+002 -0.42162703E+000  0.24603406E+000
  0.17506977E+002 -0.32024578E+000  0.27155702E+000
  0.17438641E+002 -0.28843127E+000  0.32773771E+000
  0.17115361E+002 -0.12576916E+000  0.19993610E+000
  0.16844785E+002 -0.19702115E+000  0.62237331E+000
