# vtk DataFile Version 2.0
BldPointCP.BldA
ASCII
 
DATASET POLYDATA
POINTS 9 double
 -0.10998639E+002 -0.26537627E+001  0.10649283E+003
 -0.27263864E+002 -0.65924099E+001  0.94855543E+002
 -0.40100917E+002 -0.97592582E+001  0.82582014E+002
 -0.48714378E+002 -0.11919851E+002  0.70255500E+002
 -0.51511640E+002 -0.12634057E+002  0.58261104E+002
 -0.48723489E+002 -0.11943670E+002  0.46269245E+002
 -0.40101871E+002 -0.97732412E+001  0.33940958E+002
 -0.27301894E+002 -0.65967888E+001  0.21619822E+002
 -0.11143873E+002 -0.26822016E+001  0.98266018E+001
  
POINT_DATA 9
SCALARS Gamma_LL double
LOOKUP_TABLE default
 -0.47285441E+001
 -0.16045162E+003
 -0.14419142E+003
 -0.11671544E+003
 -0.10500911E+003
 -0.97698906E+002
 -0.11170522E+003
 -0.14576098E+003
 -0.67200707E+002
VECTORS Vind_CP double
  0.10342038E+000 -0.26609905E+000  0.11454079E+000
 -0.51350836E+000  0.19899791E-001  0.51006029E+000
 -0.71250588E+000 -0.28054906E-001  0.50201316E+000
 -0.93553294E+000 -0.10106167E+000  0.29144943E+000
 -0.99743094E+000 -0.14187788E+000  0.14938161E-001
 -0.81858274E+000 -0.10281954E+000 -0.20939531E+000
 -0.57903879E+000 -0.35486857E-001 -0.37714361E+000
 -0.51790457E+000 -0.20666597E-001 -0.48910432E+000
 -0.18293481E+000 -0.80237594E-002 -0.70887257E-001
VECTORS Vtot_CP double
  0.10346326E+002  0.19707564E+002 -0.15211895E+001
  0.37522290E+001  0.50318508E+002 -0.32446278E+001
 -0.27975208E+001  0.74583547E+002 -0.33597233E+001
 -0.86353163E+001  0.91118961E+002 -0.26118267E+001
 -0.10679856E+002  0.96689142E+002 -0.25280997E+001
 -0.86364961E+001  0.91240017E+002 -0.24629050E+001
 -0.29325704E+001  0.74505714E+002 -0.16881523E+001
  0.42375720E+001  0.50197089E+002 -0.81177578E+000
  0.12124278E+002  0.20333126E+002 -0.82761572E-001
VECTORS Vstr_CP double
  0.69570948E+001 -0.19973663E+002  0.16357303E+001
  0.12934263E+002 -0.50298608E+002  0.37546881E+001
  0.19285015E+002 -0.74611602E+002  0.38617364E+001
  0.24899783E+002 -0.91220022E+002  0.29032761E+001
  0.26882425E+002 -0.96831020E+002  0.25430379E+001
  0.25017913E+002 -0.91342836E+002  0.22535097E+001
  0.19553532E+002 -0.74541201E+002  0.13110086E+001
  0.12444523E+002 -0.50217755E+002  0.32267145E+000
  0.48927875E+001 -0.20341150E+002  0.11874315E-001
VECTORS Vwnd_CP double
  0.17200000E+002  0.00000000E+000  0.00000000E+000
  0.17200000E+002  0.00000000E+000  0.00000000E+000
  0.17200000E+002  0.00000000E+000  0.00000000E+000
  0.17200000E+002  0.00000000E+000  0.00000000E+000
  0.17200000E+002  0.00000000E+000  0.00000000E+000
  0.17200000E+002  0.00000000E+000  0.00000000E+000
  0.17200000E+002  0.00000000E+000  0.00000000E+000
  0.17200000E+002  0.00000000E+000  0.00000000E+000
  0.17200000E+002  0.00000000E+000  0.00000000E+000
VECTORS Tangent double
 -0.85874761E+000  0.51231755E+000 -0.91253460E-002
 -0.23913606E+000  0.97098604E+000 -0.22273705E-003
 -0.23657158E+000  0.97161312E+000 -0.13514534E-002
 -0.22593924E+000  0.97413686E+000 -0.29734873E-002
 -0.22139997E+000  0.97518309E+000 -0.55360740E-004
 -0.22164248E+000  0.97512730E+000  0.11684482E-002
 -0.22449693E+000  0.97447442E+000  0.85922118E-003
 -0.22812905E+000  0.97363050E+000  0.88763260E-003
 -0.23059447E+000  0.97304975E+000  0.60646383E-003
VECTORS Normal double
 -0.33083095E+000 -0.54076397E+000  0.77338555E+000
 -0.62249774E+000 -0.15313372E+000  0.76749373E+000
 -0.69816707E+000 -0.16902436E+000  0.69569642E+000
 -0.87499102E+000 -0.20159998E+000  0.44016834E+000
 -0.97518233E+000 -0.22139972E+000  0.12615081E-002
 -0.87556040E+000 -0.19848356E+000 -0.44045233E+000
 -0.69993005E+000 -0.16063449E+000 -0.69591270E+000
 -0.62929172E+000 -0.14675207E+000 -0.76318789E+000
 -0.49801797E+000 -0.11748539E+000 -0.85917128E+000
VECTORS Orth double
 -0.39128433E+000 -0.66716194E+000 -0.63387027E+000
 -0.74519159E+000 -0.18367408E+000 -0.64105641E+000
 -0.67571934E+000 -0.16552554E+000 -0.71833465E+000
 -0.42818475E+000 -0.10205308E+000 -0.89791034E+000
 -0.12179446E-002 -0.33328468E-003 -0.99999920E+000
  0.42926517E+000  0.98645995E-001 -0.89777524E+000
  0.67801110E+000  0.15683166E+000 -0.71812588E+000
  0.74293275E+000  0.17466391E+000 -0.64617602E+000
  0.83594515E+000  0.19842217E+000 -0.51168774E+000
