# vtk DataFile Version 2.0
BldPointCP.BldA
ASCII
 
DATASET POLYDATA
POINTS 9 double
 -0.10590760E+002 -0.36383424E+001  0.10657931E+003
 -0.26499375E+002 -0.90810086E+001  0.95056697E+002
 -0.38969441E+002 -0.13455441E+002  0.82790974E+002
 -0.47252765E+002 -0.16430500E+002  0.70417131E+002
 -0.49931382E+002 -0.17414000E+002  0.58405396E+002
 -0.47245085E+002 -0.16456704E+002  0.46402860E+002
 -0.38945834E+002 -0.13453463E+002  0.34024953E+002
 -0.26568692E+002 -0.90729588E+001  0.21641434E+002
 -0.10852568E+002 -0.36878766E+001  0.98279027E+001
  
POINT_DATA 9
SCALARS Gamma_LL double
LOOKUP_TABLE default
 -0.41574479E+001
 -0.15631590E+003
 -0.14229916E+003
 -0.10564084E+003
 -0.82721816E+002
 -0.73363469E+002
 -0.90319691E+002
 -0.13386125E+003
 -0.56665889E+002
VECTORS Vind_CP double
  0.99801438E-001 -0.27796739E+000  0.84736184E-001
 -0.66086195E+000  0.15990179E-001  0.62979998E+000
 -0.97789949E+000 -0.48662064E-001  0.68834586E+000
 -0.10556752E+001 -0.11455125E+000  0.37181219E+000
 -0.86741084E+000 -0.17960492E+000  0.40431406E-001
 -0.80353314E+000 -0.90087896E-001 -0.19729992E+000
 -0.72253058E+000 -0.44394691E-001 -0.45270524E+000
 -0.63445029E+000 -0.35527814E-001 -0.58695264E+000
 -0.21719663E+000 -0.13845928E-003 -0.80794959E-001
VECTORS Vtot_CP double
  0.80078799E+001  0.19124568E+002 -0.15037256E+001
 -0.12688319E+001  0.49235587E+002 -0.33574634E+001
 -0.98501196E+001  0.72936688E+002 -0.39361056E+001
 -0.17370801E+002  0.88775298E+002 -0.33625742E+001
 -0.20163970E+002  0.93934527E+002 -0.31778015E+001
 -0.17784725E+002  0.88580194E+002 -0.31155096E+001
 -0.10471699E+002  0.72306633E+002 -0.23466575E+001
 -0.68111173E+000  0.48789611E+002 -0.11804388E+001
  0.10241646E+002  0.19811791E+002 -0.11059219E+000
VECTORS Vstr_CP double
  0.92919216E+001 -0.19402535E+002  0.15884618E+001
  0.17807970E+002 -0.49219597E+002  0.39872634E+001
  0.26072220E+002 -0.72985350E+002  0.46244515E+001
  0.33515126E+002 -0.88889850E+002  0.37343864E+001
  0.36496559E+002 -0.94114132E+002  0.32182329E+001
  0.34181192E+002 -0.88670282E+002  0.29182097E+001
  0.26949168E+002 -0.72351028E+002  0.18939523E+001
  0.17246661E+002 -0.48825139E+002  0.59348621E+000
  0.67411574E+001 -0.19811930E+002  0.29797234E-001
VECTORS Vwnd_CP double
  0.17200000E+002  0.00000000E+000  0.00000000E+000
  0.17200000E+002  0.00000000E+000  0.00000000E+000
  0.17200000E+002  0.00000000E+000  0.00000000E+000
  0.17200000E+002  0.00000000E+000  0.00000000E+000
  0.17200000E+002  0.00000000E+000  0.00000000E+000
  0.17200000E+002  0.00000000E+000  0.00000000E+000
  0.17200000E+002  0.00000000E+000  0.00000000E+000
  0.17200000E+002  0.00000000E+000  0.00000000E+000
  0.17200000E+002  0.00000000E+000  0.00000000E+000
VECTORS Tangent double
 -0.90173464E+000  0.43201830E+000 -0.15324213E-001
 -0.32822409E+000  0.94459896E+000 -0.13258334E-002
 -0.32309977E+000  0.94635652E+000 -0.39844452E-002
 -0.30468619E+000  0.95243120E+000 -0.64130845E-002
 -0.29725011E+000  0.95479963E+000  0.16830297E-003
 -0.29962924E+000  0.95404897E+000  0.35905200E-002
 -0.30615812E+000  0.95197776E+000  0.23559367E-002
 -0.31243030E+000  0.94993938E+000  0.15779881E-002
 -0.31611963E+000  0.94871871E+000  0.10886296E-002
VECTORS Normal double
 -0.28052994E+000 -0.55783225E+000  0.78110571E+000
 -0.60136269E+000 -0.20787541E+000  0.77146013E+000
 -0.68482690E+000 -0.23089981E+000  0.69115656E+000
 -0.85856587E+000 -0.27173084E+000  0.43477235E+000
 -0.95479863E+000 -0.29725005E+000  0.14054259E-002
 -0.85844748E+000 -0.26795867E+000 -0.43733977E+000
 -0.68909142E+000 -0.21990446E+000 -0.69050347E+000
 -0.61589674E+000 -0.20130010E+000 -0.76167544E+000
 -0.48582081E+000 -0.16089303E+000 -0.85912256E+000
VECTORS Orth double
 -0.32890362E+000 -0.70864898E+000 -0.62421073E+000
 -0.72844482E+000 -0.25400911E+000 -0.63627628E+000
 -0.65316051E+000 -0.22604118E+000 -0.72269408E+000
 -0.41234812E+000 -0.13797519E+000 -0.90051756E+000
 -0.13919282E-002 -0.25706755E-003 -0.99999900E+000
  0.41628144E+000  0.13412205E+000 -0.89928918E+000
  0.65682587E+000  0.21302670E+000 -0.72332524E+000
  0.72322784E+000  0.23894236E+000 -0.64795682E+000
  0.81489050E+000  0.27211439E+000 -0.51176874E+000
