<?xml version="1.0"?>
<VTKFile type="PolyData" version="0.1" byte_order="LittleEndian">
  <PolyData>
    <Piece NumberOfPoints="    165" NumberOfVerts="  0" NumberOfLines="      0"
           NumberOfStrips="  0" NumberOfPolys="      0">
      <Points>
        <DataArray type="Float32" NumberOfComponents="3" format="ascii">
                       0.22230                       0.04672                     113.18103
                      -6.58677                      -1.58823                     109.58508
                     -12.93235                      -3.11458                     105.99136
                     -18.80914                      -4.53317                     102.39054
                     -20.48072                      -4.93788                     101.30895
                     -24.21342                      -5.84401                      98.77752
                     -29.13272                      -7.04257                      95.13490
                     -33.56306                      -8.12758                      91.46227
                     -37.50537                      -9.09912                      87.76649
                     -40.96605                      -9.95804                      84.05943
                     -43.95422                     -10.70536                      80.35249
                     -46.47900                     -11.34180                      76.65342
                     -48.54585                     -11.86700                      72.96429
                     -50.15641                     -12.27971                      69.28345
                     -51.31039                     -12.57816                      65.60799
                     -52.00522                     -12.76019                      61.93491
                     -52.23771                     -12.82391                      58.26227
                     -52.00687                     -12.76837                      54.58941
                     -51.31360                     -12.59354                      50.91571
                     -50.16103                     -12.30047                      47.23944
                     -48.55186                     -11.89069                      43.55772
                     -46.48664                     -11.36567                      39.86776
                     -43.96376                     -10.72674                      36.16798
                     -40.97766                      -9.97467                      32.46053
                     -37.52029                      -9.10984                      28.75200
                     -33.58529                      -8.13303                      25.05010
                     -29.16925                      -7.04540                      21.36140
                     -24.27399                      -5.84856                      17.68649
                     -20.56578                      -4.94688                      15.11824
                     -18.90638                      -4.54489                      14.01742
                     -13.07142                      -3.13670                      10.34658
                      -6.76936                      -1.62254                       6.67366
                       0.00018                       0.00004                       3.00019
                       0.22230                       0.04672                     113.18103
                       2.16331                       6.71129                     109.46663
                       3.96394                      12.90952                     105.74333
                       5.63360                      18.65389                     102.03662
                       6.11005                      20.29088                     100.93124
                       7.18065                      23.96484                      98.37585
                       8.60600                      28.85028                      94.76590
                       9.90372                      33.28928                      91.16967
                      11.06811                      37.26089                      87.55830
                      12.09385                      40.74769                      83.91533
                      12.97769                      43.74118                      80.23980
                      13.71915                      46.24338                      76.54214
                      14.32008                      48.26395                      72.83628
                      14.78325                      49.81521                      69.13341
                      15.11147                      50.90881                      65.43962
                      15.30704                      51.55422                      61.75594
                      15.37143                      51.75760                      58.07940
                      15.30499                      51.52082                      54.40491
                      15.10702                      50.84202                      50.72738
                      14.77597                      49.71634                      47.04349
                      14.30996                      48.13780                      43.35239
                      13.70680                      46.09930                      39.65639
                      12.96392                      43.59238                      35.96168
                      12.07910                      40.60979                      32.27691
                      11.05137                      37.14820                      28.60979
                       9.88147                      33.21000                      24.96299
                       8.57210                      28.80407                      21.32968
                       7.12673                      23.94205                      17.69518
                       6.03558                      20.27247                      15.14162
                       5.54809                      18.63309                      14.04387
                       3.83559                      12.87546                      10.37502
                       1.98734                       6.66610                       6.69100
                       0.00018                       0.00004                       3.00019
                       0.22230                       0.04672                     113.18103
                       4.97034                      -5.01872                     109.46896
                       9.38120                      -9.73190                     105.74675
                      13.46808                     -14.09951                     102.03886
                      14.63282                     -15.34377                     100.93252
                      17.24678                     -18.13541                      98.37346
                      20.72259                     -21.84665                      94.75713
                      23.88332                     -25.21875                      91.15679
                      26.71658                     -28.23644                      87.54567
                      29.21119                     -30.88632                      83.90713
                      31.36040                     -33.16070                      80.23804
                      33.16304                     -35.05899                      76.54585
                      34.62297                     -36.58695                      72.84277
                      35.74691                     -37.75396                      69.14024
                      36.54204                     -38.57043                      65.44556
                      37.01475                     -39.04611                      61.76096
                      37.16934                     -39.18821                      58.08402
                      37.00687                     -38.99994                      54.40951
                      36.52541                     -38.48062                      50.73198
                      35.72040                     -37.62592                      47.04811
                      34.58626                     -36.42957                      43.35792
                      33.11735                     -34.88461                      39.66507
                      31.30852                     -32.98429                      35.97635
                      29.15730                     -30.72448                      32.29874
                      26.66454                     -28.10471                      28.63637
                      23.83390                     -25.12774                      24.98864
                      20.67166                     -21.79940                      21.34812
                      17.18391                     -18.12568                      17.70393
                      14.55069                     -15.35048                      15.14604
                      13.37387                     -14.10962                      14.04784
                       9.24049                      -9.74948                      10.38005
                       4.78368                      -5.04663                       6.69640
                       0.00018                       0.00004                       3.00019
                      -0.09774                      -0.02319                      15.12068
                      -2.05769                      -0.49192                      15.12088
                      -4.11468                      -0.98484                      15.12154
                      -6.17146                      -1.47858                      15.12233
                      -8.22807                      -1.97302                      15.12299
                     -10.28454                      -2.46802                      15.12330
                     -12.34089                      -2.96345                      15.12315
                     -14.39716                      -3.45919                      15.12247
                     -16.45338                      -3.95509                      15.12128
                     -18.50958                      -4.45103                      15.11977
                     -20.56578                      -4.94688                      15.11824
                       0.02807                       0.09585                      15.12068
                       0.60288                       2.02735                      15.12766
                       1.20632                       4.05468                      15.13470
                       1.80984                       6.08197                      15.14100
                       2.41343                       8.10925                      15.14618
                       3.01708                      10.13650                      15.14993
                       3.62077                      12.16373                      15.15202
                       4.22447                      14.19094                      15.15231
                       4.82819                      16.21814                      15.15073
                       5.43190                      18.24531                      15.14718
                       6.03558                      20.27247                      15.14162
                       0.06826                      -0.07263                      15.12068
                       1.45381                      -1.53587                      15.12798
                       2.90841                      -3.07144                      15.13532
                       4.36326                      -4.60677                      15.14191
                       5.81833                      -6.14190                      15.14738
                       7.27356                      -7.67686                      15.15145
                       8.72892                      -9.21169                      15.15391
                      10.18435                     -10.74643                      15.15463
                      11.63983                     -12.28111                      15.15357
                      13.09529                     -13.81579                      15.15068
                      14.55069                     -15.35048                      15.14604
                      -0.01508                      -0.01072                     101.06358
                      -1.97470                      -0.48059                     101.07282
                      -4.03139                      -0.97444                     101.08857
                      -6.08790                      -1.46886                     101.10939
                      -8.14425                      -1.96377                     101.13419
                     -10.20048                      -2.45906                     101.16194
                     -12.25660                      -2.95464                     101.19162
                     -14.31265                      -3.45041                     101.22222
                     -16.36866                      -3.94627                     101.25275
                     -18.42468                      -4.44213                     101.28206
                     -20.48072                      -4.93788                     101.30895
                       0.11074                       0.10832                     101.06358
                       0.68444                       2.04048                     101.04870
                       1.28688                       4.06845                     101.03251
                       1.88956                       6.09634                     101.01598
                       2.49241                       8.12417                     100.99944
                       3.09539                      10.15195                     100.98333
                       3.69845                      12.17971                     100.96814
                       4.30151                      14.20747                     100.95450
                       4.90451                      16.23524                     100.94312
                       5.50738                      18.26304                     100.93501
                       6.11005                      20.29088                     100.93124
                       0.15092                      -0.06016                     101.06358
                       1.53751                      -1.52291                     101.04972
                       2.99287                      -3.05829                     101.03453
                       4.44819                      -4.59369                     101.01886
                       5.90345                      -6.12914                     101.00299
                       7.35865                      -7.66465                     100.98727
                       8.81376                      -9.20023                     100.97221
                      10.26876                     -10.73591                     100.95837
                      11.72362                     -12.27170                     100.94650
                      13.17832                     -13.80765                     100.93752
                      14.63282                     -15.34377                     100.93252
        </DataArray>
      </Points>
      <PointData>
        <DataArray type="Float32" Name="TranslationalVelocity" NumberOfComponents="3" format="ascii">
                       2.97801                       0.70922                      -0.00839
                       5.51618                     -11.75235                       0.84679
                       7.77329                     -23.42877                       1.81378
                       9.81789                     -34.32178                       2.76115
                      10.39229                     -37.43818                       3.03739
                      11.68295                     -44.42765                       3.62955
                      13.48009                     -53.67900                       4.23992
                      15.31181                     -62.04391                       4.49673
                      17.24544                     -69.51196                       4.39181
                      19.26218                     -76.09464                       4.02666
                      21.25985                     -81.81757                       3.56098
                      23.09857                     -86.70578                       3.13821
                      24.65962                     -90.76725                       2.83437
                      25.87431                     -93.98923                       2.65803
                      26.72386                     -96.34412                       2.57753
                      27.22023                     -97.79657                       2.55140
                      27.37993                     -98.31532                       2.54644
                      27.21331                     -97.88380                       2.53861
                      26.72388                     -96.50123                       2.50773
                      25.91220                     -94.18272                       2.43287
                      24.77951                     -90.95231                       2.29078
                      23.33897                     -86.83609                       2.06201
                      21.62533                     -81.85747                       1.74349
                      19.69017                     -76.03139                       1.35570
                      17.59222                     -69.36570                       0.94276
                      15.38419                     -61.86835                       0.56299
                      13.09690                     -53.54710                       0.26853
                      10.73196                     -44.41118                       0.08515
                       9.02357                     -37.53897                       0.02557
                       8.27697                     -34.47895                       0.01482
                       5.69159                     -23.77604                       0.00122
                       2.93914                     -12.29156                       0.00167
                      -0.00053                      -0.00031                       0.00036
                       2.97801                       0.70922                      -0.00839
                      -9.53030                       4.08849                      -0.48436
                     -21.25093                       7.18799                      -0.99572
                     -32.11432                      10.14827                      -1.30245
                     -35.20118                      11.02305                      -1.33741
                     -42.09616                      13.08524                      -1.26407
                     -51.21015                      16.04904                      -0.85598
                     -59.44118                      18.93508                      -0.26934
                     -66.77739                      21.60337                       0.29469
                     -73.22344                      23.88455                       0.66035
                     -78.79428                      25.64511                       0.75380
                     -83.50210                      26.84658                       0.62195
                     -87.35093                      27.54254                       0.37519
                     -90.33797                      27.83767                       0.12208
                     -92.45642                      27.85702                      -0.06366
                     -93.70157                      27.71338                      -0.15756
                     -94.07435                      27.48304                      -0.17869
                     -93.58018                      27.20011                      -0.17074
                     -92.22864                      26.85830                      -0.18167
                     -90.03085                      26.42220                      -0.24743
                     -86.99982                      25.83553                      -0.38109
                     -83.14922                      25.02488                      -0.56439
                     -78.48959                      23.91048                      -0.74689
                     -73.02773                      22.42443                      -0.85683
                     -66.76527                      20.53550                      -0.82994
                     -59.69609                      18.27023                      -0.65284
                     -51.81142                      15.70220                      -0.38184
                     -43.10404                      12.91612                      -0.11909
                     -36.51595                      10.87387                      -0.00039
                     -33.56721                       9.97898                       0.02703
                     -23.20017                       6.87239                       0.06470
                     -12.01080                       3.55611                       0.04202
                      -0.00053                      -0.00031                       0.00036
                       2.97801                       0.70922                      -0.00839
                      11.70132                       9.30699                      -0.59109
                      19.71198                      17.29007                      -1.21466
                      27.16138                      24.60360                      -1.62389
                      29.30452                      26.66138                      -1.68303
                      34.19633                      31.18703                      -1.63112
                      40.87442                      36.99123                      -1.18147
                      47.09999                      42.08514                      -0.50196
                      52.75807                      46.56826                       0.17619
                      57.71418                      50.56907                       0.64861
                      61.85869                      54.20411                       0.81440
                      65.14703                      57.53283                       0.70094
                      67.61028                      60.54147                       0.42216
                      69.33298                      63.15854                       0.11037
                      70.42401                      65.27649                      -0.13291
                      70.98729                      66.77915                      -0.26365
                      71.09376                      67.57087                      -0.29739
                      70.76733                      67.59174                      -0.28860
                      69.98644                      66.82230                      -0.30170
                      68.68971                      65.28313                      -0.38289
                      66.79282                      63.02646                      -0.54009
                      64.20650                      60.12194                      -0.73601
                      60.85721                      56.63727                      -0.89913
                      56.71214                      52.61829                      -0.95528
                      51.78552                      48.08075                      -0.86052
                      46.13185                      43.01074                      -0.62509
                      39.83171                      37.37254                      -0.32220
                      32.95866                      31.12765                      -0.05413
                      27.83180                      26.38026                       0.06340
                      25.55654                      24.25169                       0.09283
                      17.60629                      16.76721                       0.14195
                       9.09208                       8.68482                       0.10934
                      -0.00053                      -0.00031                       0.00036
                       0.03545                      -0.17835                       0.00113
                       0.88323                      -3.72309                      -0.00032
                       1.77753                      -7.45494                      -0.00195
                       2.67581                     -11.19674                      -0.00353
                       3.57746                     -14.94695                      -0.00476
                       4.48185                     -18.70403                      -0.00526
                       5.38839                     -22.46644                      -0.00451
                       6.29645                     -26.23266                      -0.00186
                       7.20541                     -30.00115                       0.00343
                       8.11465                     -33.77043                       0.01225
                       9.02357                     -37.53897                       0.02557
                      -0.17896                       0.04826                       0.00113
                      -3.66240                       1.08554                       0.02271
                      -7.31701                       2.17399                       0.04421
                     -10.97008                       3.26216                       0.06278
                     -14.62181                       4.35009                       0.07678
                     -18.27242                       5.43780                       0.08476
                     -21.92211                       6.52532                       0.08549
                     -25.57110                       7.61267                       0.07793
                     -29.21960                       8.69987                       0.06128
                     -32.86781                       9.78693                       0.03521
                     -36.51595                      10.87387                      -0.00039
                       0.12450                       0.12064                       0.00113
                       2.76739                       2.62276                       0.03296
                       5.54467                       5.25308                       0.06438
                       8.32485                       7.88700                       0.09206
                      11.10752                      10.52399                       0.11438
                      13.89226                      13.16350                       0.12988
                      16.67863                      15.80500                       0.13725
                      19.46622                      18.44796                       0.13531
                      22.25457                      21.09185                       0.12305
                      25.04324                      23.73612                       0.09940
                      27.83180                      26.38026                       0.06340
                       1.36348                      -0.01347                       0.00097
                       2.21689                      -3.57525                       0.12427
                       3.11643                      -7.32134                       0.32281
                       4.01951                     -11.07407                       0.57950
                       4.92567                     -14.83234                       0.88181
                       5.83434                     -18.59506                       1.21774
                       6.74490                     -22.36117                       1.57596
                       7.65667                     -26.12960                       1.94595
                       8.56896                     -29.89928                       2.31821
                       9.48106                     -33.66917                       2.68437
                      10.39229                     -37.43818                       3.03739
                       1.14906                       0.21314                       0.00097
                      -2.35044                       1.25247                      -0.17030
                      -6.01569                       2.34148                      -0.35423
                      -9.67409                       3.42887                      -0.53630
                     -13.32693                       4.51500                      -0.71052
                     -16.97551                       5.60020                      -0.87145
                     -20.62115                       6.68479                      -1.01427
                     -24.26519                       7.76910                      -1.13493
                     -27.90897                       8.85341                      -1.23027
                     -31.55385                       9.93800                      -1.29815
                     -35.20118                      11.02305                      -1.33741
                       1.45252                       0.28552                       0.00097
                       4.11036                       2.80375                      -0.19844
                       6.90372                       5.45037                      -0.41297
                       9.70012                       8.09979                      -0.62732
                      12.49890                      10.75128                      -0.83594