<?xml version="1.0"?>
<VTKFile type="PolyData" version="0.1" byte_order="LittleEndian">
  <PolyData>
    <Piece NumberOfPoints="    165" NumberOfVerts="  0" NumberOfLines="      0"
           NumberOfStrips="  0" NumberOfPolys="      0">
      <Points>
        <DataArray type="Float32" NumberOfComponents="3" format="ascii">
                       0.38301                       0.08629                     113.18046
                      -6.27014                      -2.16511                     109.62580
                     -12.47588                      -4.26975                     106.07999
                     -18.22596                      -6.22850                     102.52786
                     -19.86196                      -6.78790                     101.46077
                     -23.51532                      -8.04120                      98.96149
                     -28.32695                      -9.69967                      95.35518
                     -32.65136                     -11.20048                      91.70241
                     -36.48481                     -12.54252                      88.00781
                     -39.83278                     -13.72676                      84.28655
                     -42.70808                     -14.75547                      80.55733
                     -45.12657                     -15.63106                      76.83566
                     -47.10044                     -16.35423                      73.12869
                     -48.63622                     -16.92362                      69.43641
                     -49.73605                     -17.33639                      65.75512
                     -50.39801                     -17.58872                      62.07986
                     -50.61880                     -17.67713                      58.40680
                     -50.39691                     -17.59968                      54.73356
                     -49.73249                     -17.35611                      51.05819
                     -48.62775                     -16.94806                      47.37789
                     -47.08448                     -16.37820                      43.68888
                     -45.10223                     -15.64939                      39.98758
                     -42.67775                     -14.76430                      36.27217
                     -39.80350                     -13.72470                      32.54520
                     -36.46912                     -12.53149                      28.81456
                     -32.66560                     -11.18574                      25.09039
                     -28.38725                      -9.68862                      21.38235
                     -23.63468                      -8.04171                      17.69380
                     -20.02906                      -6.80100                      15.12057
                     -18.41428                      -6.24793                      14.01877
                     -12.73336                      -4.31113                      10.34654
                      -6.59482                      -2.22967                       6.67368
                       0.00016                       0.00002                       3.00020
                       0.38301                       0.08629                     113.18046
                       1.69164                       6.89276                     109.44678
                       2.89973                      13.21984                     105.70084
                       4.01915                      19.08665                     101.97894
                       4.33893                      20.75978                     100.87125
                       5.05875                      24.51872                      98.31653
                       6.01851                      29.52606                      94.71980
                       6.89406                      34.08427                      91.14516
                       7.68135                      38.16749                      87.55638
                       8.37612                      41.75182                      83.92994
                       8.97538                      44.82304                      80.26119
                       9.47833                      47.38067                      76.56142
                       9.88622                      49.43543                      72.84818
                      10.20127                      51.00298                      69.13665
                      10.42576                      52.09960                      65.43600
                      10.56147                      52.73931                      61.74863
                      10.60930                      52.93158                      58.07125
                      10.56905                      52.68012                      54.39738
                      10.43954                      51.98339                      50.72020
                      10.21888                      50.83574                      47.03488
                       9.90485                      49.22931                      43.33981
                       9.49501                      47.15427                      39.63772
                       8.98674                      44.59902                      35.93649
                       8.37791                      41.55347                      32.24738
                       7.66767                      38.01284                      28.58062
                       6.85687                      33.98029                      24.93958
                       5.94815                      29.46734                      21.31547
                       4.94481                      24.48877                      17.69002
                       4.18763                      20.73333                      15.14051
                       3.84948                      19.05623                      14.04366
                       2.66173                      13.16731                      10.37607
                       1.37959                       6.81724                       6.69169
                       0.00016                       0.00002                       3.00020
                       0.38301                       0.08629                     113.18046
                       5.54795                      -4.52904                     109.43796
                      10.34142                      -8.82446                     105.68308
                      14.78410                     -12.80855                     101.95239
                      16.05122                     -13.94463                     100.84216
                      18.89898                     -16.49730                      98.28278
                      22.69434                     -19.89993                      94.68375
                      26.15349                     -22.99970                      91.11256
                      29.25869                     -25.77794                      87.53244
                      31.99231                     -28.21632                      83.91732
                      34.34194                     -30.30218                      80.25878
                      36.30356                     -32.03170                      76.56445
                      37.88181                     -33.41010                      72.85097
                      39.08701                     -34.44878                      69.13544
                      39.93161                     -35.16201                      65.43001
                      40.42741                     -35.56419                      61.73933
                      40.58271                     -35.66681                      58.06079
                      40.40040                     -35.47616                      54.38706
                      39.87811                     -34.99323                      50.70990
                      39.00871                     -34.21367                      47.02373
                      37.78264                     -33.12975                      43.32791
                      36.18967                     -31.73200                      39.62750
                      34.22073                     -30.01097                      35.93238
                      31.87138                     -27.96054                      32.25290
                      29.14291                     -25.57922                      28.59525
                      26.04152                     -22.86990                      24.95856
                      22.57743                     -19.83936                      21.33212
                      18.76047                     -16.49482                      17.70037
                      15.88183                     -13.96924                      15.14790
                      14.59613                     -12.84014                      14.05105
                      10.08237                      -8.87245                      10.38567
                       5.21826                      -4.59261                       6.70106
                       0.00016                       0.00002                       3.00020
                      -0.09526                      -0.03202                      15.12072
                      -2.00484                      -0.67584                      15.12086
                      -4.00869                      -1.35310                      15.12139
                      -6.01210                      -2.03167                      15.12201
                      -8.01512                      -2.71134                      15.12252
                     -10.01783                      -3.39191                      15.12276
                     -12.02029                      -4.07317                      15.12266
                     -14.02257                      -4.75492                      15.12223
                     -16.02475                      -5.43694                      15.12154
                     -18.02689                      -6.11904                      15.12088
                     -20.02906                      -6.80100                      15.12057
                       0.01934                       0.09786                      15.12072
                       0.41785                       2.07331                      15.12820
                       0.83631                       4.14676                      15.13573
                       1.25493                       6.22017                      15.14245
                       1.67369                       8.29356                      15.14792
                       2.09255                      10.36691                      15.15181
                       2.51150                      12.44024                      15.15383
                       2.93051                      14.51355                      15.15382
                       3.34955                      16.58684                      15.15166
                       3.76860                      18.66009                      15.14724
                       4.18763                      20.73333                      15.14051
                       0.07451                      -0.06632                      15.12072
                       1.58642                      -1.39863                      15.12925
                       3.17380                      -2.79654                      15.13780
                       4.76158                      -4.19399                      15.14545
                       6.34970                      -5.59106                      15.15177
                       7.93809                      -6.98782                      15.15642
                       9.52668                      -8.38432                      15.15914
                      11.11542                      -9.78065                      15.15974
                      12.70424                     -11.17687                      15.15811
                      14.29306                     -12.57304                      15.15417
                      15.88183                     -13.96924                      15.14790
                       0.06610                      -0.01072                     101.06353
                      -1.84274                      -0.65670                     101.07907
                      -3.84590                      -1.33576                     101.10466
                      -5.84865                      -2.01571                     101.13808
                      -7.85105                      -2.69641                     101.17770
                      -9.85317                      -3.37771                     101.22193
                     -11.85507                      -4.05945                     101.26928
                     -13.85682                      -4.74148                     101.31829
                     -15.85850                      -5.42367                     101.36755
                     -17.86019                      -6.10586                     101.41553
                     -19.86196                      -6.78790                     101.46077
                       0.18070                       0.11916                     101.06353
                       0.57711                       2.09531                     101.04153
                       0.99388                       4.16939                     101.01762
                       1.41124                       6.24334                     100.99336
                       1.82908                       8.31719                     100.96935
                       2.24727                      10.39097                     100.94621
                       2.66569                      12.46470                     100.92466
                       3.08420                      14.53843                     100.90545
                       3.50267                      16.61217                     100.88944
                       3.92096                      18.68594                     100.87766
                       4.33893                      20.75978                     100.87125
                       0.23588                      -0.04502                     101.06353
                       1.74960                      -1.37579                     101.03940
                       3.33861                      -2.77240                     101.01316
                       4.92775                      -4.16884                     100.98643
                       6.51698                      -5.56518                     100.95972
                       8.10624                      -6.96148                     100.93365
                       9.69549                      -8.35779                     100.90895
                      11.28468                      -9.75419                     100.88642
                      12.87374                     -11.15075                     100.86700
                      14.46261                     -12.54754                     100.85181
                      16.05122                     -13.94463                     100.84216
        </DataArray>
      </Points>
      <PointData>
        <DataArray type="Float32" Name="TranslationalVelocity" NumberOfComponents="3" format="ascii">
                       3.40670                       0.85618                      -0.01499
                       7.10742                     -11.31841                       0.76611
                      10.45079                     -22.75061                       1.69377
                      13.48500                     -33.44132                       2.66890
                      14.33755                     -36.50501                       2.96511
                      16.23071                     -43.38643                       3.63988
                      18.75515                     -52.51073                       4.45768
                      21.16947                     -60.76061                       4.98241
                      23.58479                     -68.09899                       5.13711
                      26.05283                     -74.51608                       4.95254
                      28.53262                     -80.03327                       4.55338
                      30.90518                     -84.69101                       4.09673
                      33.02851                     -88.52261                       3.70336
                      34.78360                     -91.53928                       3.42999
                      36.09214                     -93.72997                       3.27806
                      36.91415                     -95.06723                       3.21669
                      37.23598                     -95.52082                       3.20386
                      37.06498                     -95.06951                       3.19868
                      36.42378                     -93.70478                       3.16821
                      35.34444                     -91.43394                       3.08974
                      33.85722                     -88.27747                       2.94721
                      31.98940                     -84.26354                       2.72747
                      29.77019                     -79.42194                       2.42112
                      27.23045                     -73.77572                       2.02426
                      24.40926                     -67.33699                       1.54783
                      21.36216                     -60.10736                       1.03424
                      18.15012                     -52.07759                       0.55778
                      14.81779                     -43.23674                       0.20125
                      12.42895                     -36.56388                       0.06502
                      11.39281                     -33.58664                       0.03722
                       7.82192                     -23.16445                      -0.00326
                       4.03793                     -11.97515                      -0.00138
                      -0.00013                      -0.00043                       0.00015
                       3.40670                       0.85618                      -0.01499
                      -9.36329                       3.15695                      -0.29455
                     -21.32597                       5.21513                      -0.67526
                     -32.45065                       7.15245                      -0.96641
                     -35.62323                       7.72188                      -1.02178
                     -42.74204                       9.05481                      -1.06576
                     -52.22240                      10.95571                      -0.94630
                     -60.84805                      12.82058                      -0.67761
                     -68.56844                      14.59544                      -0.34946
                     -75.34069                      16.19404                      -0.06499
                     -81.14162                      17.52653                       0.10569
                     -85.97125                      18.53620                       0.15104
                     -89.84651                      19.21279                       0.10411
                     -92.79091                      19.58426                       0.01497
                     -94.82909                      19.70668                      -0.06948
                     -95.98524                      19.64411                      -0.12087
                     -96.28079                      19.44939                      -0.13326
                     -95.73156                      19.15891                      -0.11762
                     -94.34743                      18.79033                      -0.09429
                     -92.13235                      18.34554                      -0.08556
                     -89.08696                      17.80882                      -0.10764
                     -85.20823                      17.14711                      -0.16237
                     -80.48786                      16.31837                      -0.23437
                     -74.91644                      15.28136                      -0.29327
                     -68.48836                      14.01003                      -0.30565
                     -61.20464                      12.50828                      -0.25846
                     -53.07537                      10.80496                      -0.16919
                     -44.11477                       8.93618                      -0.07635
                     -37.35370                       7.54702                      -0.03404
                     -34.33289                       6.93348                      -0.02493
                     -23.72391                       4.78974                      -0.01055
                     -12.28325                       2.48238                      -0.00586
                      -0.00013                      -0.00043                       0.00015
                       3.40670                       0.85618                      -0.01499
                      11.35450                      10.25256                      -0.63881
                      18.64505                      18.97216                      -1.31154
                      25.42307                      26.99435                      -1.81004
                      27.37330                      29.26340                      -1.90650
                      31.82814                      34.29631                      -1.97392
                      37.91940                      40.84056                      -1.74329
                      43.61518                      46.64837                      -1.27463
                      48.81993                      51.75798                      -0.73398
                      53.41420                      56.23389                      -0.28681
                      57.28639                      60.15353                      -0.04011
                      60.36897                      63.58143                      -0.01141
                      62.66006                      66.54752                      -0.14158
                      64.21590                      69.04256                      -0.33838
                      65.13030                      71.02269                      -0.51620
                      65.50850                      72.42234                      -0.62343
                      65.43603                      73.17345                      -0.65256
                      64.96018                      73.21750                      -0.63100
                      64.08636                      72.51276                      -0.60314
                      62.77740                      71.04050                      -0.60934
                      60.96425                      68.80696                      -0.66685
                      58.56192                      65.83848                      -0.75858
                      55.49218                      62.17010                      -0.83683
                      51.71233                      57.83313                      -0.84647
                      47.22433                      52.84904                      -0.75071
                      42.07033                      47.22728                      -0.55159
                      36.32205                      40.96559                      -0.30192
                      30.04931                      34.05563                      -0.08103
                      25.37163                      28.82842                       0.01681
                      23.29629                      26.49138                       0.04196
                      16.04379                      18.29271                       0.09207
                       8.27852                       9.46640                       0.08386
                      -0.00013                      -0.00043                       0.00015
                       0.06531                      -0.17426                       0.00044
                       1.23057                      -3.62858                       0.00030
                       2.46014                      -7.26468                      -0.00301
                       3.69547                     -10.90997                      -0.00787
                       4.93567                     -14.56300                      -0.01253
                       6.17985                     -18.22235                      -0.01520
                       7.42710                     -21.88658                      -0.01408
                       8.67654                     -25.55426                      -0.00736
                       9.92725                     -29.22397                       0.00685
                      11.17836                     -32.89432                       0.03035
                      12.42895                     -36.56388                       0.06502
                      -0.16862                       0.03215                       0.00044
                      -3.73261                       0.75146                       0.00135
                      -7.47204                       1.50652                       0.00227
                     -11.21019                       2.26162                       0.00282
                     -14.94719                       3.01674                       0.00265
                     -18.68319                       3.77188                       0.00141
                     -22.41836                       4.52700                      -0.00132
                     -26.15285                       5.28210                      -0.00595
                     -29.88680                       6.03713                      -0.01294
                     -33.62037                       6.79213                      -0.02231
                     -37.35370                       7.54702                      -0.03404
                       0.12710                       0.13154                       0.00044
                       2.53455                       2.86303                       0.02004
                       5.06453                       5.73540                       0.03907
                       7.59729                       8.61255                       0.05558
                      10.13243                      11.49379                       0.06862
                      12.66958                      14.37841                       0.07721
                      15.20834                      17.26575                       0.08037
                      17.74832                      20.15509                       0.07704
                      20.28913                      23.04577                       0.06617
                      22.83037                      25.93711                       0.04651
                      25.37163                      28.82842                       0.01681
                       1.87553                       0.01315                      -0.00319
                       3.05237                      -3.46459                       0.12222
                       4.29317                      -7.12167                       0.31285
                       5.53916                     -10.78458                       0.55453
                       6.78968                     -14.45226                       0.83799
                       8.04391                     -18.12373                       1.15441
                       9.30094                     -21.79804                       1.49547
                      10.55981                     -25.47424                       1.85350
                      11.81953                     -29.15142                       2.22157
                      13.07911                     -32.82866                       2.59374
                      14.33755                     -36.50501                       2.96511
                       1.64160                       0.21956                      -0.00319
                      -1.94632                       0.93860                      -0.11190
                      -5.70410                       1.69287                      -0.23162
                      -9.45477                       2.44678                      -0.35335
                     -13.19969                       3.20044                      -0.47352
                     -16.94020                       3.95398                      -0.58891
                     -20.67763                       4.70746                      -0.69680
                     -24.41333                       5.46097                      -0.79500
                     -28.14862                       6.21453                      -0.88203
                     -31.88482                       6.96818                      -0.95749
                     -35.62323                       7.72188                      -1.02178
                       1.93732                       0.31895                      -0.00319
                       4.36111                       3.07680                      -0.21090
                       6.90934                       5.97719                      -0.43436
                       9.46120                       8.88235                      -0.65888
                      12.01603                      11.79121                      -0.87999