# vtk DataFile Version 2.0
BldPointCP.BldA
ASCII
 
DATASET POLYDATA
POINTS 9 double
 -0.10681611E+002 -0.34437593E+001  0.10656224E+003
 -0.26672304E+002 -0.85879092E+001  0.95015856E+002
 -0.39223300E+002 -0.12723136E+002  0.82746660E+002
 -0.47579010E+002 -0.15538139E+002  0.70381726E+002
 -0.50285263E+002 -0.16469506E+002  0.58373885E+002
 -0.47577197E+002 -0.15565436E+002  0.46373507E+002
 -0.39206207E+002 -0.12726529E+002  0.34005873E+002
 -0.26734106E+002 -0.85834392E+001  0.21636081E+002
 -0.10918206E+002 -0.34889419E+001  0.98275506E+001
  
POINT_DATA 9
SCALARS Gamma_LL double
LOOKUP_TABLE default
 -0.42547860E+001
 -0.15731063E+003
 -0.14299805E+003
 -0.10775207E+003
 -0.86500484E+002
 -0.77819245E+002
 -0.94564929E+002
 -0.13627156E+003
 -0.58695410E+002
VECTORS Vind_CP double
  0.10328530E+000 -0.27835745E+000  0.92862373E-001
 -0.63235684E+000  0.18460819E-001  0.60734823E+000
 -0.93127811E+000 -0.43973612E-001  0.65468636E+000
 -0.10735499E+001 -0.11813150E+000  0.36397287E+000
 -0.94631846E+000 -0.18455086E+000  0.34519196E-001
 -0.84942434E+000 -0.10122939E+000 -0.20847628E+000
 -0.70214017E+000 -0.43469031E-001 -0.44234414E+000
 -0.61335846E+000 -0.31705055E-001 -0.56937514E+000
 -0.21032533E+000 -0.19203180E-002 -0.78539861E-001
VECTORS Vtot_CP double
  0.84632483E+001  0.19249166E+002 -0.15229898E+001
 -0.26601601E+000  0.49496723E+002 -0.33820172E+001
 -0.84649065E+001  0.73337282E+002 -0.38663652E+001
 -0.15733209E+002  0.89341747E+002 -0.32291658E+001
 -0.18396752E+002  0.94606846E+002 -0.30630715E+001
 -0.16045886E+002  0.89235339E+002 -0.30013947E+001
 -0.89989629E+001  0.72839993E+002 -0.22233944E+001
  0.28430646E+000  0.49121099E+002 -0.11120656E+001
  0.10613608E+002  0.19931880E+002 -0.10486496E+000
VECTORS Vstr_CP double
  0.88400370E+001 -0.19527524E+002  0.16158521E+001
  0.16833659E+002 -0.49478262E+002  0.39893654E+001
  0.24733628E+002 -0.73381256E+002  0.45210516E+001
  0.31859659E+002 -0.89459879E+002  0.35931386E+001
  0.34650434E+002 -0.94791397E+002  0.30975907E+001
  0.32396461E+002 -0.89336568E+002  0.27929184E+001
  0.25496823E+002 -0.72883462E+002  0.17810503E+001
  0.16302335E+002 -0.49152804E+002  0.54269043E+000
  0.63760668E+001 -0.19933801E+002  0.26325096E-001
VECTORS Vwnd_CP double
  0.17200000E+002  0.00000000E+000  0.00000000E+000
  0.17200000E+002  0.00000000E+000  0.00000000E+000
  0.17200000E+002  0.00000000E+000  0.00000000E+000
  0.17200000E+002  0.00000000E+000  0.00000000E+000
  0.17200000E+002  0.00000000E+000  0.00000000E+000
  0.17200000E+002  0.00000000E+000  0.00000000E+000
  0.17200000E+002  0.00000000E+000  0.00000000E+000
  0.17200000E+002  0.00000000E+000  0.00000000E+000
  0.17200000E+002  0.00000000E+000  0.00000000E+000
VECTORS Tangent double
 -0.89374945E+000  0.44834508E+000 -0.14092679E-001
 -0.31062410E+000  0.95053220E+000 -0.10978303E-002
 -0.30599649E+000  0.95202645E+000 -0.34339697E-002
 -0.28917498E+000  0.95725936E+000 -0.56882396E-002
 -0.28233965E+000  0.95931450E+000  0.12284956E-003
 -0.28426160E+000  0.95874179E+000  0.30865045E-002
 -0.29002133E+000  0.95701798E+000  0.20524077E-002
 -0.29575092E+000  0.95526400E+000  0.14419775E-002
 -0.29920540E+000  0.95418822E+000  0.98669145E-003
VECTORS Normal double
 -0.29060976E+000 -0.55480937E+000  0.77957202E+000
 -0.60605836E+000 -0.19716360E+000  0.77059703E+000
 -0.68804574E+000 -0.21865304E+000  0.69194213E+000
 -0.86220309E+000 -0.25786888E+000  0.43601545E+000
 -0.95931335E+000 -0.28233951E+000  0.15142534E-002
 -0.86228776E+000 -0.25425356E+000 -0.43796683E+000
 -0.69159720E+000 -0.20810308E+000 -0.69165484E+000
 -0.61888067E+000 -0.19045591E+000 -0.76204545E+000
 -0.48855582E+000 -0.15230835E+000 -0.85913641E+000
VECTORS Orth double
 -0.34169853E+000 -0.70083753E+000 -0.62615403E+000
 -0.73226084E+000 -0.24003136E+000 -0.63732175E+000
 -0.65799636E+000 -0.21409459E+000 -0.72194480E+000
 -0.41591305E+000 -0.13098917E+000 -0.89992120E+000
 -0.14873305E-002 -0.30968254E-003 -0.99999885E+000
  0.41911235E+000  0.12715861E+000 -0.89898583E+000
  0.66149901E+000  0.20201410E+000 -0.72222529E+000
  0.72767995E+000  0.22626806E+000 -0.64752194E+000
  0.81962756E+000  0.25754031E+000 -0.51174569E+000
