# vtk DataFile Version 2.0

ASCII
 
DATASET POLYDATA
POINTS 170 double
  0.28397492E+000  0.61641917E-001  0.11318085E+003
  0.14777468E+002 -0.14388050E+002  0.10076959E+003
  0.25139463E+002 -0.24707461E+002  0.88695470E+002
  0.33867644E+002 -0.33295179E+002  0.76559682E+002
  0.38079777E+002 -0.37387824E+002  0.64218709E+002
  0.38045609E+002 -0.37259544E+002  0.51949383E+002
  0.33794527E+002 -0.33074213E+002  0.39656146E+002
  0.25085300E+002 -0.24587146E+002  0.27423797E+002
  0.14668556E+002 -0.14394137E+002  0.15269476E+002
  0.16538931E-003  0.34381667E-004  0.30001913E+001
 -0.82930184E+000 -0.42984028E+001  0.11315586E+003
  0.11738320E+002 -0.17586655E+002  0.10079094E+003
  0.22949160E+002 -0.26896708E+002  0.88714656E+002
  0.32117961E+002 -0.35017949E+002  0.76558648E+002
  0.36493898E+002 -0.38992038E+002  0.64215819E+002
  0.36435495E+002 -0.38901451E+002  0.51951197E+002
  0.31958460E+002 -0.34915510E+002  0.39657119E+002
  0.22677350E+002 -0.27023666E+002  0.27426734E+002
  0.11527002E+002 -0.17616036E+002  0.15269687E+002
 -0.31556083E+001 -0.32075778E+001  0.29520571E+001
 -0.76705889E+000 -0.42887387E+001  0.11315461E+003
  0.11565452E+002 -0.17791286E+002  0.10078861E+003
  0.22610146E+002 -0.27290399E+002  0.88710496E+002
  0.31625134E+002 -0.35563374E+002  0.76545399E+002
  0.35932637E+002 -0.39622323E+002  0.64214752E+002
  0.35878806E+002 -0.39546691E+002  0.51958950E+002
  0.31472253E+002 -0.35481423E+002  0.39673220E+002
  0.22342375E+002 -0.27421834E+002  0.27443468E+002
  0.11374372E+002 -0.17819342E+002  0.15271424E+002
 -0.30443633E+001 -0.31495544E+001  0.29476486E+001
 -0.70447101E+000 -0.42746353E+001  0.11315965E+003
  0.11390121E+002 -0.17989231E+002  0.10078674E+003
  0.22266357E+002 -0.27675057E+002  0.88706049E+002
  0.31124303E+002 -0.36096947E+002  0.76531416E+002
  0.35360526E+002 -0.40239312E+002  0.64212943E+002
  0.35309744E+002 -0.40177863E+002  0.51966475E+002
  0.30976186E+002 -0.36034951E+002  0.39689100E+002
  0.22001270E+002 -0.27811122E+002  0.27459089E+002
  0.11218643E+002 -0.18017043E+002  0.15272582E+002
 -0.29320845E+001 -0.30906607E+001  0.29429906E+001
 -0.63992701E+000 -0.42604129E+001  0.11315998E+003
  0.11212958E+002 -0.18183195E+002  0.10077192E+003
  0.21918140E+002 -0.28050916E+002  0.88701565E+002
  0.30615742E+002 -0.36618861E+002  0.76517105E+002
  0.34778063E+002 -0.40843276E+002  0.64210426E+002
  0.34729429E+002 -0.40795446E+002  0.51973493E+002
  0.30471250E+002 -0.36576443E+002  0.39704104E+002
  0.21654625E+002 -0.28191786E+002  0.27472840E+002
  0.11059926E+002 -0.18208413E+002  0.15275035E+002
 -0.28193076E+001 -0.30298879E+001  0.29382914E+001
 -0.57402859E+000 -0.42434071E+001  0.11316177E+003
  0.11034309E+002 -0.18369929E+002  0.10076722E+003
  0.21565832E+002 -0.28418264E+002  0.88697659E+002
  0.30100415E+002 -0.37130079E+002  0.76503289E+002
  0.34186834E+002 -0.41435689E+002  0.64207835E+002
  0.34139637E+002 -0.41400634E+002  0.51979592E+002
  0.29958584E+002 -0.37106429E+002  0.39717505E+002
  0.21302849E+002 -0.28563929E+002  0.27484574E+002
  0.10898321E+002 -0.18394169E+002  0.15277773E+002
 -0.27049334E+001 -0.29691357E+001  0.29298560E+001
 -0.50663040E+000 -0.42233717E+001  0.11316469E+003
  0.10856016E+002 -0.18550789E+002  0.10077371E+003
  0.21209697E+002 -0.28777334E+002  0.88694541E+002
  0.29579168E+002 -0.37631553E+002  0.76490858E+002
  0.33588702E+002 -0.42018364E+002  0.64205721E+002
  0.33542444E+002 -0.41995020E+002  0.51984248E+002
  0.29439442E+002 -0.37625690E+002  0.39728329E+002
  0.20946370E+002 -0.28927721E+002  0.27493805E+002
  0.10732933E+002 -0.18574635E+002  0.15282479E+002
 -0.25899716E+001 -0.29065520E+001  0.29209906E+001
 -0.43708067E+000 -0.42015858E+001  0.11316632E+003
  0.10671997E+002 -0.18721638E+002  0.10079855E+003
  0.20849967E+002 -0.29128375E+002  0.88692548E+002
  0.29052862E+002 -0.38124285E+002  0.76480723E+002
  0.32986175E+002 -0.42593873E+002  0.64204691E+002
  0.32940696E+002 -0.42581081E+002  0.51986862E+002
  0.28915064E+002 -0.38135037E+002  0.39735740E+002
  0.20585575E+002 -0.29283330E+002  0.27500192E+002
  0.10565661E+002 -0.18748853E+002  0.15283513E+002
 -0.24734844E+001 -0.28437910E+001  0.29155998E+001
 -0.36511701E+000 -0.41779384E+001  0.11316640E+003
  0.10495097E+002 -0.18890958E+002  0.10080293E+003
  0.20486793E+002 -0.29471595E+002  0.88692058E+002
  0.28522105E+002 -0.38609045E+002  0.76473564E+002
  0.32380299E+002 -0.43163263E+002  0.64205224E+002
  0.32335786E+002 -0.43159885E+002  0.51986964E+002
  0.28386478E+002 -0.38635119E+002  0.39739074E+002
  0.20220792E+002 -0.29630887E+002  0.27503382E+002
  0.10395881E+002 -0.18917256E+002  0.15285411E+002
 -0.23555658E+001 -0.27799435E+001  0.29110683E+001
 -0.29067120E+000 -0.41541775E+001  0.11315872E+003
  0.10311538E+002 -0.19052201E+002  0.10082179E+003
  0.20120108E+002 -0.29807006E+002  0.88693118E+002
  0.27987015E+002 -0.39086024E+002  0.76469652E+002
  0.31771959E+002 -0.43727353E+002  0.64207400E+002
  0.31728739E+002 -0.43732110E+002  0.51984518E+002
  0.27853828E+002 -0.39125849E+002  0.39738292E+002
  0.19852106E+002 -0.29970265E+002  0.27503333E+002
  0.10223164E+002 -0.19080063E+002  0.15282451E+002
 -0.22355177E+001 -0.27160142E+001  0.29115316E+001
 -0.21417763E+000 -0.41248309E+001  0.11315933E+003
  0.10129245E+002 -0.19206686E+002  0.10085902E+003
  0.19749646E+002 -0.30134426E+002  0.88695529E+002
  0.27447295E+002 -0.39554895E+002  0.76468912E+002
  0.31160216E+002 -0.44284876E+002  0.64211169E+002
  0.31118648E+002 -0.44296480E+002  0.51979738E+002
  0.27316880E+002 -0.39606601E+002  0.39733746E+002
  0.19477044E+002 -0.30298693E+002  0.27504551E+002
  0.10048387E+002 -0.19237001E+002  0.15279555E+002
 -0.21136052E+001 -0.26511869E+001  0.29127840E+001
 -0.13388444E+000 -0.40945393E+001  0.11315742E+003
  0.99460340E+001 -0.19356147E+002  0.10087535E+003
  0.19372855E+002 -0.30451347E+002  0.88694997E+002
  0.26901546E+002 -0.40013924E+002  0.76470188E+002
  0.30542113E+002 -0.44832114E+002  0.64215419E+002
  0.30502368E+002 -0.44849139E+002  0.51973941E+002
  0.26773930E+002 -0.40075345E+002  0.39727028E+002
  0.19097885E+002 -0.30618183E+002  0.27503338E+002
  0.98708181E+001 -0.19387987E+002  0.15276261E+002
 -0.19891970E+001 -0.25866377E+001  0.29147151E+001
 -0.49848465E-001 -0.40619671E+001  0.11315379E+003
  0.97674556E+001 -0.19498226E+002  0.10089776E+003
  0.18991780E+002 -0.30759823E+002  0.88695696E+002
  0.26349124E+002 -0.40462083E+002  0.76473048E+002
  0.29915436E+002 -0.45365881E+002  0.64219748E+002
  0.29877462E+002 -0.45386886E+002  0.51967691E+002
  0.26224084E+002 -0.40530952E+002  0.39718862E+002
  0.18714301E+002 -0.30928152E+002  0.27500087E+002
  0.96931799E+001 -0.19532217E+002  0.15263580E+002
 -0.18632372E+001 -0.25206676E+001  0.29171540E+001
  0.37680861E-001 -0.40255854E+001  0.11315447E+003
  0.95851442E+001 -0.19636618E+002  0.10092912E+003
  0.18603752E+002 -0.31056971E+002  0.88692902E+002
  0.25789193E+002 -0.40897892E+002  0.76476666E+002
  0.29274697E+002 -0.45878835E+002  0.64223522E+002
  0.29238023E+002 -0.45902348E+002  0.51961928E+002
  0.25666179E+002 -0.40971864E+002  0.39710579E+002
  0.18323705E+002 -0.31225392E+002  0.27499786E+002
  0.95118823E+001 -0.19670790E+002  0.15255111E+002
 -0.17358746E+001 -0.24540679E+001  0.29298790E+001
  0.13007228E+000 -0.39885524E+001  0.11315673E+003
  0.93994422E+001 -0.19767857E+002  0.10096576E+003
  0.18212374E+002 -0.31346625E+002  0.88693657E+002
  0.25221130E+002 -0.41319677E+002  0.76480234E+002
  0.28621073E+002 -0.46370755E+002  0.64226076E+002
  0.28585047E+002 -0.46395373E+002  0.51957420E+002
  0.25099298E+002 -0.41396315E+002  0.39702851E+002
  0.17929969E+002 -0.31513952E+002  0.27495639E+002
  0.93285671E+001 -0.19803680E+002  0.15243534E+002
 -0.16073134E+001 -0.23861465E+001  0.29380860E+001
  0.22716709E+000 -0.39503204E+001  0.11315854E+003
  0.92078049E+001 -0.19885774E+002  0.10096263E+003
  0.17814979E+002 -0.31625728E+002  0.88692142E+002
  0.24646108E+002 -0.41728179E+002  0.76484188E+002
  0.27955982E+002 -0.46842580E+002  0.64227754E+002
  0.27920021E+002 -0.46867289E+002  0.51954386E+002
  0.24524276E+002 -0.41805198E+002  0.39696409E+002
  0.17531878E+002 -0.31792517E+002  0.27491288E+002
  0.91388554E+001 -0.19925159E+002  0.15241620E+002
 -0.14761849E+001 -0.23182656E+001  0.29420685E+001
  0.32755106E+000 -0.39103294E+001  0.11316018E+003
  0.90185958E+001 -0.20000976E+002  0.10096899E+003
  0.17416389E+002 -0.31900141E+002  0.88696112E+002
  0.24065426E+002 -0.42125173E+002  0.76487952E+002
  0.27284140E+002 -0.47300496E+002  0.64229103E+002
  0.27248056E+002 -0.47324986E+002  0.51952493E+002
  0.23942987E+002 -0.42201285E+002  0.39691198E+002
  0.17130673E+002 -0.32062867E+002  0.27486136E+002
  0.89452594E+001 -0.20036928E+002  0.15248083E+002
 -0.13451954E+001 -0.22483672E+001  0.29437660E+001
  
POLYGONS 144 720
      4      0      1     11     10
      4      1      2     12     11
      4      2      3     13     12
      4      3      4     14     13
      4      4      5     15     14
      4      5      6     16     15
      4      6      7     17     16
      4      7      8     18     17
      4      8      9     19     18
      4     10     11     21     20
      4     11     12     22     21
      4     12     13     23     22
      4     13     14     24     23
      4     14     15     25     24
      4     15     16     26     25
      4     16     17     27     26
      4     17     18     28     27
      4     18     19     29     28
      4     20     21     31     30
      4     21     22     32     31
      4     22     23     33     32
      4     23     24     34     33
      4     24     25     35     34
      4     25     26     36     35
      4     26     27     37     36
      4     27     28     38     37
      4     28     29     39     38
      4     30     31     41     40
      4     31     32     42     41
      4     32     33     43     42
      4     33     34     44     43
      4     34     35     45     44
      4     35     36     46     45
      4     36     37     47     46
      4     37     38     48     47
      4     38     39     49     48
      4     40     41     51     50
      4     41     42     52     51
      4     42     43     53     52
      4     43     44     54     53
      4     44     45     55     54
      4     45     46     56     55
      4     46     47     57     56
      4     47     48     58     57
      4     48     49     59     58
      4     50     51     61     60
      4     51     52     62     61
      4     52     53     63     62
      4     53     54     64     63
      4     54     55     65     64
      4     55     56     66     65
      4     56     57     67     66
      4     57     58     68     67
      4     58     59     69     68
      4     60     61     71     70
      4     61     62     72     71
      4     62     63     73     72
      4     63     64     74     73
      4     64     65     75     74
      4     65     66     76     75
      4     66     67     77     76
      4     67     68     78     77
      4     68     69     79     78
      4     70     71     81     80
      4     71     72     82     81
      4     72     73     83     82
      4     73     74     84     83
      4     74     75     85     84
      4     75     76     86     85
      4     76     77     87     86
      4     77     78     88     87
      4     78     79     89     88
      4     80     81     91     90
      4     81     82     92     91
      4     82     83     93     92
      4     83     84     94     93
      4     84     85     95     94
      4     85     86     96     95
      4     86     87     97     96
      4     87     88     98     97
      4     88     89     99     98
      4     90     91    101    100
      4     91     92    102    101
      4     92     93    103    102
      4     93     94    104    103
      4     94     95    105    104
      4     95     96    106    105
      4     96     97    107    106
      4     97     98    108    107
      4     98     99    109    108
      4    100    101    111    110
      4    101    102    112    111
      4    102    103    113    112
      4    103    104    114    113
      4    104    105    115    114
      4    105    106    116    115
      4    106    107    117    116
      4    107    108    118    117
      4    108    109    119    118
      4    110    111    121    120
      4    111    112    122    121
      4    112    113    123    122
      4    113    114    124    123
      4    114    115    125    124
      4    115    116    126    125
      4    116    117    127    126
      4    117    118    128    127
      4    118    119    129    128
      4    120    121    131    130
      4    121    122    132    131
      4    122    123    133    132
      4    123    124    134    133
      4    124    125    135    134
      4    125    126    136    135
      4    126    127    137    136
      4    127    128    138    137
      4    128    129    139    138
      4    130    131    141    140
      4    131    132    142    141
      4    132    133    143    142
      4    133    134    144    143
      4    134    135    145    144
      4    135    136    146    145
      4    136    137    147    146
      4    137    138    148    147
      4    138    139    149    148
      4    140    141    151    150
      4    141    142    152    151
      4    142    143    153    152
      4    143    144    154    153
      4    144    145    155    154
      4    145    146    156    155
      4    146    147    157    156
      4    147    148    158    157
      4    148    149    159    158
      4    150    151    161    160
      4    151    152    162    161
      4    152    153    163    162
      4    153    154    164    163
      4    154    155    165    164
      4    155    156    166    165
      4    156    157    167    166
      4    157    158    168    167
      4    158    159    169    168
  
CELL_DATA 144
SCALARS Gamma double
LOOKUP_TABLE default
  0.57414600E+002
  0.10501053E+003
  0.79670528E+002
  0.90825219E+002
  0.10293404E+003
  0.10344840E+003
  0.95868519E+002
  0.10951464E+003
  0.31832455E+002
  0.57414600E+002
  0.10501053E+003
  0.79670528E+002
  0.90825219E+002
  0.10293404E+003
  0.10344840E+003
  0.95868519E+002
  0.10951464E+003
  0.31832455E+002
  0.55995925E+002
  0.10318339E+003
  0.77152219E+002
  0.89152246E+002
  0.10240634E+003
  0.10226954E+003
  0.93821348E+002
  0.10775768E+003
  0.31223643E+002
  0.54575238E+002
  0.10136402E+003
  0.74760834E+002
  0.87522418E+002
  0.10176708E+003
  0.10100265E+003
  0.91829215E+002
  0.10604890E+003
  0.30616215E+002
  0.53124638E+002
  0.99545566E+002
  0.72503410E+002
  0.85940782E+002
  0.10101857E+003
  0.99434899E+002
  0.89869162E+002
  0.10439297E+003
  0.30010144E+002
  0.51647466E+002
  0.97738212E+002
  0.70404471E+002
  0.84394105E+002
  0.10013231E+003
  0.97654972E+002
  0.87943123E+002
  0.10280359E+003
  0.29406983E+002
  0.50133611E+002
  0.95802285E+002
  0.68396894E+002
  0.82775051E+002
  0.98966935E+002
  0.95623256E+002
  0.85937736E+002
  0.10113575E+003
  0.28760945E+002
  0.47126770E+002
  0.91081558E+002
  0.64599049E+002
  0.78726788E+002
  0.94621029E+002
  0.90646486E+002
  0.81452395E+002
  0.96570826E+002
  0.27272932E+002
  0.40307935E+002
  0.78883779E+002
  0.55757413E+002
  0.68182051E+002
  0.82010533E+002
  0.78109832E+002
  0.70331007E+002
  0.84043411E+002
  0.23558086E+002
  0.31180205E+002
  0.61861691E+002
  0.43729599E+002
  0.53402917E+002
  0.64079181E+002
  0.60762635E+002
  0.54966018E+002
  0.66251422E+002
  0.18425397E+002
  0.21751674E+002
  0.43748467E+002
  0.31092012E+002
  0.37702419E+002
  0.44954690E+002
  0.42522550E+002
  0.38757463E+002
  0.47116865E+002
  0.12995209E+002
  0.12940546E+002
  0.26383846E+002
  0.18957153E+002
  0.22682258E+002
  0.26751777E+002
  0.25299876E+002
  0.23305827E+002
  0.28582989E+002
  0.78166061E+001
  0.55517334E+001
  0.11524444E+002
  0.84253451E+001
  0.98669053E+001
  0.11443381E+002
  0.10857547E+002
  0.10153410E+002
  0.12534465E+002
  0.33987728E+001
  0.10796506E+001
  0.22864924E+001
  0.17123151E+001
  0.19508177E+001
  0.22107269E+001
  0.21117534E+001
  0.20087758E+001
  0.24850141E+001
  0.67029763E+000
  0.12168383E-001
  0.26361473E-001
  0.20268502E-001
  0.22122473E-001
  0.24323726E-001
  0.23479501E-001
  0.22930704E-001
  0.28397287E-001
  0.76470951E-002
  0.00000000E+000
  0.00000000E+000
  0.00000000E+000
  0.00000000E+000
  0.00000000E+000
  0.00000000E+000
  0.00000000E+000
  0.00000000E+000
  0.00000000E+000
POINT_DATA 170
VECTORS Uconv double
  0.00000000E+000  0.00000000E+000  0.00000000E+000
  0.00000000E+000  0.00000000E+000  0.00000000E+000
  0.00000000E+000  0.00000000E+000  0.00000000E+000
  0.00000000E+000  0.00000000E+000  0.00000000E+000
  0.00000000E+000  0.00000000E+000  0.00000000E+000
  0.00000000E+000  0.00000000E+000  0.00000000E+000
  0.00000000E+000  0.00000000E+000  0.00000000E+000
  0.00000000E+000  0.00000000E+000  0.00000000E+000
  0.00000000E+000  0.00000000E+000  0.00000000E+000
  0.00000000E+000  0.00000000E+000  0.00000000E+000
  0.00000000E+000  0.00000000E+000  0.00000000E+000
  0.00000000E+000  0.00000000E+000  0.00000000E+000
  0.00000000E+000  0.00000000E+000  0.00000000E+000
  0.00000000E+000  0.00000000E+000  0.00000000E+000
  0.00000000E+000  0.00000000E+000  0.00000000E+000
  0.00000000E+000  0.00000000E+000  0.00000000E+000
  0.00000000E+000  0.00000000E+000  0.00000000E+000
  0.00000000E+000  0.00000000E+000  0.00000000E+000
  0.00000000E+000  0.00000000E+000  0.00000000E+000
  0.00000000E+000  0.00000000E+000  0.00000000E+000
  0.17281286E+002 -0.36758366E+000 -0.46959719E+000
  0.16901515E+002  0.98015608E-001 -0.18887587E+001
  0.16579633E+002  0.61760165E+000 -0.92062945E+000
  0.16332864E+002  0.92998764E+000 -0.74584561E+000
  0.15791546E+002  0.14513669E+001 -0.35666611E+000
  0.15667963E+002  0.15522870E+001  0.45309459E+000
  0.16112807E+002  0.11218235E+001  0.94960154E+000
  0.16453384E+002  0.75679358E+000  0.10795875E+001
  0.16904170E+002  0.25760898E+000  0.22119578E+000
  0.16829864E+002  0.92709102E-001 -0.85500647E+000
  0.17233757E+002 -0.22373707E+000 -0.12307164E+000
  0.16856567E+002  0.10222288E+000 -0.20404590E+001
  0.16610714E+002  0.58989562E+000 -0.87462603E+000
  0.16323753E+002  0.94261848E+000 -0.74613130E+000
  0.15704837E+002  0.15452211E+001 -0.37769974E+000
  0.15572544E+002  0.16551222E+001  0.47549464E+000
  0.16098580E+002  0.11412382E+001  0.95342030E+000
  0.16487328E+002  0.72684551E+000  0.10297766E+001
  0.16931021E+002  0.23821835E+000  0.17201167E+000
  0.16841140E+002  0.76137807E-001 -0.84917131E+000
  0.17232709E+002 -0.22205987E+000 -0.11915501E+000
  0.16822390E+002  0.72667709E-001 -0.21938603E+001
  0.16648791E+002  0.55353612E+000 -0.81737109E+000
  0.16333561E+002  0.93338429E+000 -0.72775258E+000
  0.15652215E+002  0.16047779E+001 -0.38478565E+000
  0.15515686E+002  0.17202487E+001  0.48451437E+000
  0.16108603E+002  0.11347594E+001  0.93491295E+000
  0.16532327E+002  0.68373838E+000  0.95223613E+000
  0.16935965E+002  0.24251370E+000  0.33582313E+000
  0.16832079E+002  0.97581472E-001 -0.84255455E+000
  0.17231576E+002 -0.22018114E+000 -0.11514603E+000
  0.16773984E+002  0.62657781E-002 -0.23612365E+001
  0.16695249E+002  0.50672871E+000 -0.73079996E+000
  0.16365933E+002  0.89805020E+000 -0.68802342E+000
  0.15645994E+002  0.16151276E+001 -0.37865132E+000
  0.15509864E+002  0.17323465E+001  0.47748137E+000
  0.16146061E+002  0.10979672E+001  0.89414318E+000
  0.16583013E+002  0.63324921E+000  0.87338005E+000
  0.16962228E+002  0.22899006E+000  0.29762602E+000
  0.16841224E+002  0.87363680E-001 -0.83571245E+000
  0.17230322E+002 -0.21813347E+000 -0.11103904E+000
  0.16762883E+002 -0.61691135E-001 -0.21204196E+001
  0.16746280E+002  0.45351673E+000 -0.64890738E+000
  0.16423055E+002  0.83343765E+000 -0.62511703E+000
  0.15698697E+002  0.15610629E+001 -0.35722309E+000
  0.15566372E+002  0.16772274E+001  0.45135810E+000
  0.16215859E+002  0.10246200E+001  0.82015079E+000
  0.16641007E+002  0.57335831E+000  0.78214138E+000
  0.16986836E+002  0.23201575E+000  0.25845089E+000
  0.16833333E+002  0.10982847E+000 -0.82048678E+000
  0.17228870E+002 -0.21619147E+000 -0.10661827E+000
  0.16669448E+002 -0.14768488E+000 -0.20430479E+001
  0.16802313E+002  0.39321605E+000 -0.55791606E+000
  0.16505490E+002  0.73838811E+000 -0.53872659E+000
  0.15819876E+002  0.14314791E+001 -0.31771546E+000
  0.15699731E+002  0.15387991E+001  0.40382618E+000
  0.16317789E+002  0.91428477E+000  0.71683348E+000
  0.16705261E+002  0.50510385E+000  0.68013669E+000
  0.17024307E+002  0.22643898E+000  0.24393596E+000
  0.16839461E+002  0.10469135E+000 -0.81045116E+000
  0.17227183E+002 -0.21441130E+000 -0.10182337E+000
  0.17011498E+002 -0.12732916E-001 -0.82713602E+000
  0.16862136E+002  0.32708093E+000 -0.45971104E+000
  0.16610880E+002  0.61518527E+000 -0.43422693E+000
  0.16010404E+002  0.12240052E+001 -0.26123709E+000
  0.15908386E+002  0.13169405E+001  0.33596736E+000
  0.16450344E+002  0.76951633E+000  0.58652816E+000
  0.16774357E+002  0.43001163E+000  0.56838913E+000
  0.16991374E+002  0.17469149E+000  0.35003766E+000
  0.16836864E+002  0.11646157E+000 -0.79319808E+000
  0.17245519E+002 -0.27747743E+000 -0.35872846E+000
  0.17020525E+002 -0.34386960E-001 -0.65308127E+000
  0.16924257E+002  0.25658516E+000 -0.35631377E+000
  0.16734977E+002  0.46801168E+000 -0.31052151E+000
  0.16259867E+002  0.94899432E+000 -0.19093368E+000
  0.16179993E+002  0.10236208E+001  0.25176256E+000
  0.16604514E+002  0.59632963E+000  0.43557958E+000
  0.16846931E+002  0.34923746E+000  0.45099928E+000
  0.17011178E+002  0.15223784E+000  0.17732353E+000
  0.16849366E+002  0.97006203E-001 -0.78382016E+000
  0.17236891E+002 -0.25334711E+000 -0.30178735E+000
  0.16799585E+002 -0.30190667E+000  0.14613455E+000
  0.16986989E+002  0.18334541E+000 -0.25058689E+000
  0.16869653E+002  0.30553909E+000 -0.17702985E+000
  0.16545715E+002  0.62863067E+000 -0.10849509E+000
  0.16489187E+002  0.68341841E+000  0.15801586E+000
  0.16771094E+002  0.40531047E+000  0.27274746E+000
  0.16690616E+002  0.50306940E+000  0.72626736E+000
  0.17059857E+002  0.15080338E+000  0.28199726E+000
  0.16857572E+002  0.85552180E-001 -0.77216276E+000
  0.17232756E+002 -0.24843213E+000 -0.24985536E+000
  0.16916365E+002 -0.21621280E+000  0.37325873E+000
  0.16831592E+002  0.33294045E+000 -0.54226207E+000
  0.17004917E+002  0.13779913E+000 -0.41889812E-001
  0.16836523E+002  0.29304893E+000 -0.29339865E-001
  0.16802084E+002  0.32813628E+000  0.62841030E-001
  0.16937335E+002  0.20848708E+000  0.10824347E+000
  0.16780113E+002  0.39990832E+000  0.58285481E+000
  0.17057794E+002  0.11226754E+000  0.26477383E+000
  0.16864051E+002  0.77269100E-001 -0.75879417E+000
  0.17219642E+002 -0.23537941E+000 -0.44284152E+000
  0.16996415E+002 -0.17195301E+000  0.35430491E+000
  0.16909105E+002  0.24006917E+000 -0.40505939E+000
  0.17131123E+002 -0.24133777E-001  0.86325230E-001
  0.17102203E+002 -0.25855595E-001  0.44519550E-001
  0.17086242E+002 -0.85737940E-002 -0.25124285E-001
  0.17092225E+002  0.17891712E-001 -0.53338653E-001
  0.16865854E+002  0.29832816E+000  0.43644719E+000
  0.17119975E+002  0.71393155E-001  0.10368391E+000
  0.16869718E+002  0.70497929E-001 -0.74274157E+000
  0.17214397E+002 -0.21839644E+000 -0.35734915E+000
  0.17131562E+002 -0.10636677E+000  0.45205087E+000
  0.16978669E+002  0.15172264E+000 -0.28010583E+000
  0.17240037E+002 -0.17038611E+000  0.20018685E+000
  0.17317185E+002 -0.30470644E+000  0.10908807E+000
  0.17315345E+002 -0.30119129E+000 -0.10028575E+000
  0.17224053E+002 -0.15308600E+000 -0.19078622E+000
  0.16943460E+002  0.20090905E+000  0.29942031E+000
  0.17128669E+002  0.47138368E-001  0.49842067E-001
  0.16878204E+002  0.27622704E-001 -0.24016118E+000
  0.17218399E+002 -0.22746514E+000 -0.31351339E+000
  0.17006354E+002  0.62753091E-001  0.28163565E-001
  0.17041635E+002  0.70152478E-001 -0.16463859E+000
  0.17326269E+002 -0.29369977E+000  0.29443812E+000
  0.17471219E+002 -0.52150824E+000  0.15713336E+000
  0.17479250E+002 -0.53036970E+000 -0.15778324E+000
  0.17328520E+002 -0.29826007E+000 -0.30832668E+000
  0.17013424E+002  0.11139597E+000  0.17416262E+000
  0.17172468E+002 -0.75479594E-002 -0.13988379E+000
  0.16880055E+002  0.26453512E-001 -0.21707088E+000
  0.17212786E+002 -0.21432888E+000 -0.24459924E+000
  0.16958284E+002  0.39792775E-001  0.22366817E+000
  0.17097260E+002 -0.59249353E-002 -0.80868777E-001
  0.17389581E+002 -0.39102007E+000  0.37812446E+000
  0.17565768E+002 -0.67119238E+000  0.19636362E+000
  0.17579929E+002 -0.68935647E+000 -0.19703245E+000
  0.17403337E+002 -0.41175304E+000 -0.39634873E+000
  0.17073727E+002  0.31030061E-001  0.76472583E-001
  0.16933912E+002  0.20011373E+000  0.14399147E+000
  0.17010734E+002 -0.73529600E-001 -0.30574806E-001
  0.17208387E+002 -0.20659669E+000 -0.19199752E+000
  0.16985897E+002  0.42158407E-001  0.25112465E+000
  0.17144562E+002 -0.70898722E-001  0.14420788E-001
  0.17429411E+002 -0.45906385E+000  0.42651877E+000
  0.17610370E+002 -0.75545728E+000  0.21323906E+000
  0.17629470E+002 -0.78189699E+000 -0.22090118E+000
  0.17451784E+002 -0.49347409E+000 -0.45834131E+000
  0.17125776E+002 -0.40589408E-001 -0.23382714E-001
  0.16942039E+002  0.19141078E+000  0.10562223E+000
  0.17002407E+002 -0.58586695E-001 -0.15716880E-001
