# vtk DataFile Version 2.0

ASCII
 
DATASET POLYDATA
POINTS 70 double
  0.35609182E-001  0.62507968E-002  0.11318187E+003
 -0.20457014E+002 -0.18520534E+001  0.10098038E+003
 -0.34896353E+002 -0.31677864E+001  0.88742181E+002
 -0.46959944E+002 -0.42753960E+001  0.76480182E+002
 -0.52997073E+002 -0.48326793E+001  0.64235260E+002
 -0.52998858E+002 -0.48348763E+001  0.51993527E+002
 -0.46960847E+002 -0.42837735E+001  0.39749988E+002
 -0.34899469E+002 -0.31712375E+001  0.27482279E+002
 -0.20467715E+002 -0.18551119E+001  0.15241063E+002
  0.16241854E-003  0.37530681E-004  0.30001114E+001
 -0.44459373E+001 -0.40077646E+000  0.11317352E+003
 -0.20863285E+002  0.25414527E+001  0.10098217E+003
 -0.35188440E+002 -0.84725754E-001  0.88746710E+002
 -0.47186097E+002 -0.18303639E+001  0.76481489E+002
 -0.53200660E+002 -0.25861090E+001  0.64235313E+002
 -0.53205406E+002 -0.25445352E+001  0.51992322E+002
 -0.47190162E+002 -0.16936159E+001  0.39746079E+002
 -0.35203149E+002  0.24089386E+000  0.27482172E+002
 -0.20870051E+002  0.26268660E+001  0.15241247E+002
 -0.40522879E+000  0.44817401E+001  0.30003179E+001
 -0.42942162E+001 -0.32202455E+000  0.11317640E+003
 -0.20644904E+002  0.29188314E+001  0.10096773E+003
 -0.35012704E+002  0.55602492E+000  0.88729337E+002
 -0.47052368E+002 -0.96697119E+000  0.76472316E+002
 -0.53083325E+002 -0.16102140E+001  0.64226646E+002
 -0.53086596E+002 -0.15675302E+001  0.51982592E+002
 -0.47054675E+002 -0.82781926E+000  0.39737049E+002
 -0.35023919E+002  0.88225870E+000  0.27481831E+002
 -0.20648728E+002  0.30049768E+001  0.15241049E+002
 -0.15258122E+000  0.44882590E+001  0.30001805E+001
 -0.41379509E+001 -0.24237253E+000  0.11317908E+003
 -0.20418024E+002  0.32946401E+001  0.10095543E+003
 -0.34823794E+002  0.11946579E+001  0.88715240E+002
 -0.46897883E+002 -0.10644928E+000  0.76464404E+002
 -0.52942628E+002 -0.63774320E+000  0.64219705E+002
 -0.52944645E+002 -0.59427512E+000  0.51975939E+002
 -0.46899116E+002  0.34812611E-001  0.39731384E+002
 -0.34831779E+002  0.15216146E+001  0.27482776E+002
 -0.20419895E+002  0.33813999E+001  0.15241368E+002
  0.10031749E+000  0.44933055E+001  0.30003633E+001
 -0.39768679E+001 -0.16206957E+000  0.11318092E+003
 -0.20182829E+002  0.36687892E+001  0.10094665E+003
 -0.34621777E+002  0.18309397E+001  0.88705037E+002
 -0.46723914E+002  0.75078223E+000  0.76458720E+002
 -0.52779781E+002  0.33080566E+000  0.64215124E+002
 -0.52780915E+002  0.37464871E+000  0.51972079E+002
 -0.46725127E+002  0.89385136E+000  0.39728572E+002
 -0.34627786E+002  0.21586803E+001  0.27484037E+002
 -0.20184011E+002  0.37560750E+001  0.15241853E+002
  0.35344276E+000  0.44969428E+001  0.30003683E+001
 -0.38106481E+001 -0.81322015E-001  0.11318172E+003
 -0.19940138E+002  0.40412226E+001  0.10094201E+003
 -0.34408380E+002  0.24647690E+001  0.88699893E+002
 -0.46531266E+002  0.16043460E+001  0.76455540E+002
 -0.52595590E+002  0.12949511E+001  0.64212895E+002
 -0.52596208E+002  0.13388384E+001  0.51970720E+002
 -0.46532720E+002  0.17487123E+001  0.39728082E+002
 -0.34412618E+002  0.27932079E+001  0.27484348E+002
 -0.19941135E+002  0.41288783E+001  0.15242265E+002
  0.60659506E+000  0.44991174E+001  0.30003950E+001
 -0.36402386E+001 -0.33411658E-003  0.11318188E+003
 -0.19691374E+002  0.44120817E+001  0.10094063E+003
 -0.34184642E+002  0.30966112E+001  0.88698015E+002
 -0.46322166E+002  0.24550795E+001  0.76454453E+002
 -0.52391692E+002  0.22554055E+001  0.64212268E+002
 -0.52391693E+002  0.22992652E+001  0.51970628E+002
 -0.46322188E+002  0.25999025E+001  0.39728428E+002
 -0.34184622E+002  0.34253383E+001  0.27484884E+002
 -0.19691364E+002  0.44998503E+001  0.15242457E+002
  0.85967925E+000  0.44998337E+001  0.30004303E+001
  
POLYGONS 54 270
      4      0      1     11     10
      4      1      2     12     11
      4      2      3     13     12
      4      3      4     14     13
      4      4      5     15     14
      4      5      6     16     15
      4      6      7     17     16
      4      7      8     18     17
      4      8      9     19     18
      4     10     11     21     20
      4     11     12     22     21
      4     12     13     23     22
      4     13     14     24     23
      4     14     15     25     24
      4     15     16     26     25
      4     16     17     27     26
      4     17     18     28     27
      4     18     19     29     28
      4     20     21     31     30
      4     21     22     32     31
      4     22     23     33     32
      4     23     24     34     33
      4     24     25     35     34
      4     25     26     36     35
      4     26     27     37     36
      4     27     28     38     37
      4     28     29     39     38
      4     30     31     41     40
      4     31     32     42     41
      4     32     33     43     42
      4     33     34     44     43
      4     34     35     45     44
      4     35     36     46     45
      4     36     37     47     46
      4     37     38     48     47
      4     38     39     49     48
      4     40     41     51     50
      4     41     42     52     51
      4     42     43     53     52
      4     43     44     54     53
      4     44     45     55     54
      4     45     46     56     55
      4     46     47     57     56
      4     47     48     58     57
      4     48     49     59     58
      4     50     51     61     60
      4     51     52     62     61
      4     52     53     63     62
      4     53     54     64     63
      4     54     55     65     64
      4     55     56     66     65
      4     56     57     67     66
      4     57     58     68     67
      4     58     59     69     68
  
CELL_DATA 54
SCALARS Gamma double
LOOKUP_TABLE default
 -0.17915563E+001
 -0.48619196E+002
 -0.42402214E+002
 -0.41280658E+002
 -0.42145739E+002
 -0.40220134E+002
 -0.41313394E+002
 -0.48317845E+002
 -0.24714688E+002
 -0.17915563E+001
 -0.48619196E+002
 -0.42402214E+002
 -0.41280658E+002
 -0.42145739E+002
 -0.40220134E+002
 -0.41313394E+002
 -0.48317845E+002
 -0.24714688E+002
 -0.81856091E+000
 -0.21541708E+002
 -0.18744617E+002
 -0.18631326E+002
 -0.19216129E+002
 -0.18418026E+002
 -0.18723285E+002
 -0.21655029E+002
 -0.11135103E+002
 -0.16983547E+000
 -0.43158211E+001
 -0.37588562E+001
 -0.38076947E+001
 -0.39630860E+001
 -0.38217750E+001
 -0.38456670E+001
 -0.43977668E+001
 -0.22764939E+001
 -0.20358333E-002
 -0.50129804E-001
 -0.43769850E-001
 -0.45116199E-001
 -0.47341231E-001
 -0.45934438E-001
 -0.45782683E-001
 -0.51804677E-001
 -0.27059359E-001
 -0.00000000E+000
 -0.00000000E+000
 -0.00000000E+000
 -0.00000000E+000
 -0.00000000E+000
 -0.00000000E+000
 -0.00000000E+000
 -0.00000000E+000
 -0.00000000E+000
POINT_DATA 70
VECTORS Uconv double
  0.00000000E+000  0.00000000E+000  0.00000000E+000
  0.00000000E+000  0.00000000E+000  0.00000000E+000
  0.00000000E+000  0.00000000E+000  0.00000000E+000
  0.00000000E+000  0.00000000E+000  0.00000000E+000
  0.00000000E+000  0.00000000E+000  0.00000000E+000
  0.00000000E+000  0.00000000E+000  0.00000000E+000
  0.00000000E+000  0.00000000E+000  0.00000000E+000
  0.00000000E+000  0.00000000E+000  0.00000000E+000
  0.00000000E+000  0.00000000E+000  0.00000000E+000
  0.00000000E+000  0.00000000E+000  0.00000000E+000
  0.00000000E+000  0.00000000E+000  0.00000000E+000
  0.00000000E+000  0.00000000E+000  0.00000000E+000
  0.00000000E+000  0.00000000E+000  0.00000000E+000
  0.00000000E+000  0.00000000E+000  0.00000000E+000
  0.00000000E+000  0.00000000E+000  0.00000000E+000
  0.00000000E+000  0.00000000E+000  0.00000000E+000
  0.00000000E+000  0.00000000E+000  0.00000000E+000
  0.00000000E+000  0.00000000E+000  0.00000000E+000
  0.00000000E+000  0.00000000E+000  0.00000000E+000
  0.00000000E+000  0.00000000E+000  0.00000000E+000
  0.17183952E+002 -0.25959020E-001 -0.78350743E-001
  0.17159462E+002  0.52792442E-002  0.12427804E+000
  0.17113451E+002  0.10808599E-001  0.82041144E-001
  0.17068582E+002  0.14056591E-001  0.75022780E-001
  0.17044929E+002  0.12086033E-001  0.36755296E-001
  0.17045969E+002  0.11632749E-001 -0.36487569E-001
  0.17067429E+002  0.12892465E-001 -0.76202294E-001
  0.17113973E+002  0.93802880E-002 -0.83482307E-001
  0.17148572E+002  0.10307309E-001 -0.40827068E-001
  0.17181594E+002 -0.53781048E-002  0.24126689E-002
  0.17183101E+002 -0.26423200E-001 -0.80056100E-001
  0.17168128E+002 -0.11443398E-002  0.10119502E+000
  0.17143078E+002  0.12919958E-002  0.51730612E-001
  0.17131796E+002  0.20190752E-002  0.35273184E-001
  0.17098918E+002  0.35351917E-002  0.15913662E-001
  0.17099264E+002  0.34089741E-002 -0.16295888E-001
  0.17130518E+002  0.14503792E-002 -0.36784546E-001
  0.17143934E+002  0.22027681E-003 -0.52879423E-001
  0.17159786E+002  0.38585812E-002 -0.30175897E-001
  0.17181143E+002 -0.68647363E-002  0.48579517E-002
  0.17182193E+002 -0.26898782E-001 -0.81808510E-001
  0.17175407E+002 -0.67687780E-002  0.74658204E-001
  0.17172784E+002 -0.86849326E-002  0.21053523E-001
  0.17195836E+002 -0.11509284E-001 -0.62202958E-002
  0.17163154E+002 -0.79239876E-002 -0.78256501E-002
  0.17163248E+002 -0.78555997E-002  0.71117378E-002
  0.17194085E+002 -0.11546722E-001  0.43205043E-002
  0.17173832E+002 -0.94970385E-002 -0.22028614E-001
  0.17169991E+002 -0.22054291E-002 -0.21186876E-001
  0.17180653E+002 -0.81562782E-002  0.72905345E-002
  0.17181223E+002 -0.27386440E-001 -0.83610132E-001
  0.17181448E+002 -0.11443886E-001  0.46516067E-001
  0.17136210E+002 -0.13561383E-001  0.55112527E-001
  0.17253039E+002 -0.24807063E-001 -0.44994826E-001
  0.17225829E+002 -0.20390975E-001 -0.30278318E-001
  0.17225785E+002 -0.20330849E-001  0.29570179E-001
  0.17250969E+002 -0.24606856E-001  0.42828976E-001
  0.17137608E+002 -0.14930254E-001 -0.55767682E-001
  0.17179194E+002 -0.78580268E-002 -0.13477820E-001
  0.17180124E+002 -0.92675574E-002  0.96898623E-002
  0.17180189E+002 -0.27880424E-001 -0.85449444E-001
  0.17186411E+002 -0.15006095E-001  0.19334384E-001
  0.17166569E+002 -0.21625212E-001  0.23119391E-001
  0.17298655E+002 -0.36421992E-001 -0.77811741E-001
  0.17275887E+002 -0.31540322E-001 -0.47666372E-001
  0.17276037E+002 -0.31555747E-001  0.47006119E-001
  0.17296499E+002 -0.36274995E-001  0.75617385E-001
  0.17168374E+002 -0.23498957E-001 -0.23549978E-001
  0.17187461E+002 -0.13127085E-001 -0.65167353E-002
  0.17179554E+002 -0.10211004E-001  0.12037960E-001
