<?xml version="1.0"?>
<VTKFile type="PolyData" version="0.1" byte_order="LittleEndian">
  <PolyData>
    <Piece NumberOfPoints="     10" NumberOfVerts="  0" NumberOfLines="      9"
           NumberOfStrips="  0" NumberOfPolys="      0">
      <Points>
        <DataArray type="Float32" NumberOfComponents="3" format="ascii">
                       0.15092                      -0.06016                     101.06358
                       1.76149                      -1.75688                     101.04793
                       3.37147                      -3.45417                     101.03111
                       4.98114                      -5.15176                     101.01357
                       6.59035                      -6.84978                     100.99569
                       8.19765                      -8.55027                     100.97919
                       9.80766                     -10.24750                     100.96353
                      11.41703                     -11.94534                     100.94977
                      13.02542                     -13.64409                     100.93819
                      14.63282                     -15.34377                     100.93252
        </DataArray>
      </Points>
      <PointData>
        <DataArray type="Float32" Name="TranslationalVelocity" NumberOfComponents="3" format="ascii">
                       1.45252                       0.28552                       0.00097
                       4.53533                       3.21084                      -0.23099
                       7.62362                       6.13932                      -0.46875
                      10.71583                       9.07051                      -0.70484
                      13.81129                      12.00321                      -0.93199
                      16.91661                      14.93404                      -1.14213
                      20.01299                      17.87002                      -1.32799
                      23.11011                      20.80413                      -1.48411
                      26.20750                      23.73485                      -1.60443
                      29.30452                      26.66138                      -1.68303
        </DataArray>
        <DataArray type="Float32" Name="RotationalVelocity" NumberOfComponents="3" format="ascii">
                       0.07459                       0.06198                       1.81443
                       0.06922                       0.07303                       1.81696
                       0.06168                       0.08282                       1.81916
                       0.05220                       0.09078                       1.82088
                       0.04086                       0.09696                       1.82214
                       0.01290                       0.10421                       1.82324
                      -0.00353                       0.10546                       1.82308
                      -0.02146                       0.10521                       1.82246
                      -0.04094                       0.10336                       1.82136
                      -0.06178                       0.10012                       1.81981
        </DataArray>
        <DataArray type="Float32" Name="TranslationalAcceleration" NumberOfComponents="3" format="ascii">
                      10.67417                      -4.28968                      -0.06212
                      10.09806                      -3.35980                      -0.47018
                       9.80594                      -2.60968                      -0.93772
                       9.55420                      -1.81970                      -1.46132
                       9.33591                      -1.00065                      -2.04413
                      14.35031                      -4.94968                      -3.01401
                      14.19385                      -4.09408                      -3.61069
                      14.05334                      -3.23345                      -4.31718
                      13.91029                      -2.36523                      -5.10239
                      13.77547                      -1.49261                      -5.92714
        </DataArray>
        <DataArray type="Float32" Name="OrientationX" NumberOfComponents="3" format="ascii">
                       0.00375                      -0.00296                       0.99999
                       0.00423                      -0.00361                       0.99998
                       0.00467                      -0.00418                       0.99998
                       0.00506                      -0.00465                       0.99998
                       0.00537                      -0.00501                       0.99997
                       0.00572                      -0.00532                       0.99997
                       0.00569                      -0.00518                       0.99997
                       0.00552                      -0.00484                       0.99997
                       0.00271                      -0.00155                       1.00000
                      -0.00285                       0.00888                       0.99996
        </DataArray>
        <DataArray type="Float32" Name="OrientationY" NumberOfComponents="3" format="ascii">
                      -0.72209                      -0.69180                       0.00066
                      -0.72234                      -0.69153                       0.00056
                      -0.72270                      -0.69116                       0.00049
                      -0.72319                      -0.69065                       0.00044
                      -0.72384                      -0.68996                       0.00043
                      -0.72575                      -0.68796                       0.00049
                      -0.72714                      -0.68649                       0.00058
                      -0.72883                      -0.68469                       0.00070
                      -0.73051                      -0.68290                       0.00092
                      -0.71685                      -0.69722                       0.00415
        </DataArray>
        <DataArray type="Float32" Name="OrientationZ" NumberOfComponents="3" format="ascii">
                       0.69179                      -0.72208                      -0.00473
                       0.69152                      -0.72233                      -0.00553
                       0.69114                      -0.72269                      -0.00625
                       0.69063                      -0.72318                      -0.00685
                       0.68994                      -0.72383                      -0.00733
                       0.68794                      -0.72573                      -0.00779
                       0.68646                      -0.72712                      -0.00767
                       0.68467                      -0.72882                      -0.00731
                       0.68290                      -0.73051                      -0.00298
                       0.69722                      -0.71680                       0.00835
        </DataArray>
      </PointData>
      <Lines>
        <DataArray type="Int32" Name="connectivity" format="ascii">
      0      1
      1      2
      2      3
      3      4
      4      5
      5      6
      6      7
      7      8
      8      9
        </DataArray>
        <DataArray type="Int32" Name="offsets" format="ascii">
      2
      4
      6
      8
     10
     12
     14
     16
     18
        </DataArray>
      </Lines>
    </Piece>
  </PolyData>
</VTKFile>
