<?xml version="1.0"?>
<VTKFile type="PolyData" version="0.1" byte_order="LittleEndian">
  <PolyData>
    <Piece NumberOfPoints="     10" NumberOfVerts="  0" NumberOfLines="      9"
           NumberOfStrips="  0" NumberOfPolys="      0">
      <Points>
        <DataArray type="Float32" NumberOfComponents="3" format="ascii">
                       0.05925                      -0.08056                      15.12051
                       1.44042                      -1.96828                      15.12393
                       2.82189                      -3.85579                      15.12736
                       4.20355                      -5.74315                      15.13044
                       5.58547                      -7.63032                      15.13301
                       6.96564                      -9.51883                      15.13693
                       8.34761                     -11.40593                      15.13772
                       9.72960                     -13.29302                      15.13784
                      11.11153                     -15.18012                      15.13724
                      12.49335                     -17.06729                      15.13586
        </DataArray>
      </Points>
      <PointData>
        <DataArray type="Float32" Name="TranslationalVelocity" NumberOfComponents="3" format="ascii">
                       0.13715                       0.10669                       0.00434
                       3.54336                       2.59933                       0.10264
                       6.95281                       5.09517                       0.19513
                      10.36498                       7.59357                       0.27442
                      13.77920                      10.09424                       0.33451
                      17.19829                      12.59419                       0.36963
                      20.61540                      15.09738                       0.37803
                      24.03300                      17.60109                       0.36089
                      27.45053                      20.10482                       0.32023
                      30.86750                      22.60807                       0.25970
        </DataArray>
        <DataArray type="Float32" Name="RotationalVelocity" NumberOfComponents="3" format="ascii">
                      -0.04756                      -0.00605                       1.80307
                      -0.04586                      -0.00761                       1.80487
                      -0.04176                      -0.00762                       1.80650
                      -0.03560                      -0.00617                       1.80788
                      -0.02780                      -0.00356                       1.80900
                      -0.00926                       0.00370                       1.81046
                       0.00037                       0.00756                       1.81080
                       0.00948                       0.01103                       1.81088
                       0.01781                       0.01404                       1.81071
                       0.02454                       0.01590                       1.81029
        </DataArray>
        <DataArray type="Float32" Name="TranslationalAcceleration" NumberOfComponents="3" format="ascii">
                      -0.04966                      -0.00415                      -0.25684
                      -0.72734                       1.04864                      -0.95403
                      -1.19270                       1.86688                      -1.67377
                      -1.63454                       2.70078                      -2.35072
                      -2.05294                       3.54788                      -2.93177
                       1.71766                      -0.90697                      -3.50142
                       1.37057                      -0.03622                      -3.51361
                       1.04204                       0.83679                      -3.48242
                       0.74403                       1.69727                      -3.42306
                       0.46337                       2.54460                      -3.29921
        </DataArray>
        <DataArray type="Float32" Name="OrientationX" NumberOfComponents="3" format="ascii">
                       0.00000                       0.00013                       1.00000
                       0.00004                       0.00008                       1.00000
                       0.00009                       0.00002                       1.00000
                       0.00014                      -0.00004                       1.00000
                       0.00022                      -0.00014                       1.00000
                       0.00004                       0.00004                       1.00000
                       0.00003                       0.00013                       1.00000
                       0.00004                       0.00018                       1.00000
                       0.00007                       0.00020                       1.00000
                       0.00001                      -0.00000                       1.00000
        </DataArray>
        <DataArray type="Float32" Name="OrientationY" NumberOfComponents="3" format="ascii">
                      -0.80761                      -0.58971                       0.00008
                      -0.80742                      -0.58998                       0.00008
                      -0.80721                      -0.59027                       0.00009
                      -0.80699                      -0.59056                       0.00009
                      -0.80671                      -0.59094                       0.00009
                      -0.80590                      -0.59206                       0.00006
                      -0.80593                      -0.59201                       0.00010
                      -0.80601                      -0.59190                       0.00014
                      -0.80613                      -0.59174                       0.00018
                      -0.80611                      -0.59176                       0.00001
        </DataArray>
        <DataArray type="Float32" Name="OrientationZ" NumberOfComponents="3" format="ascii">
                       0.58971                      -0.80761                       0.00010
                       0.58998                      -0.80742                       0.00004
                       0.59027                      -0.80721                      -0.00004
                       0.59056                      -0.80699                      -0.00012
                       0.59094                      -0.80671                      -0.00024
                       0.59206                      -0.80590                       0.00001
                       0.59201                      -0.80593                       0.00009
                       0.59190                      -0.80601                       0.00012
                       0.59174                      -0.80613                       0.00012
                       0.59176                      -0.80611                      -0.00001
        </DataArray>
      </PointData>
      <Lines>
        <DataArray type="Int32" Name="connectivity" format="ascii">
      0      1
      1      2
      2      3
      3      4
      4      5
      5      6
      6      7
      7      8
      8      9
        </DataArray>
        <DataArray type="Int32" Name="offsets" format="ascii">
      2
      4
      6
      8
     10
     12
     14
     16
     18
        </DataArray>
      </Lines>
    </Piece>
  </PolyData>
</VTKFile>
