# vtk DataFile Version 2.0
BldPointCP.BldC
ASCII
 
DATASET POLYDATA
POINTS 9 double
  0.73292689E+001 -0.88602567E+001  0.10631445E+003
  0.17836450E+002 -0.21783980E+002  0.94545041E+002
  0.26265073E+002 -0.32105297E+002  0.82365717E+002
  0.31950935E+002 -0.39031606E+002  0.70105966E+002
  0.33767470E+002 -0.41224020E+002  0.58094099E+002
  0.31936800E+002 -0.38974841E+002  0.46092319E+002
  0.26248654E+002 -0.32038448E+002  0.33828519E+002
  0.17815346E+002 -0.21753236E+002  0.21611218E+002
  0.72613232E+001 -0.88678254E+001  0.98398741E+001
  
POINT_DATA 9
SCALARS Gamma_LL double
LOOKUP_TABLE default
  0.47126770E+002
  0.91081558E+002
  0.64599049E+002
  0.78726788E+002
  0.94621029E+002
  0.90646486E+002
  0.81452395E+002
  0.96570826E+002
  0.27272932E+002
VECTORS Vind_CP double
 -0.10583057E+000 -0.16859005E+000 -0.28962622E+000
 -0.91081155E-001  0.10443736E+000 -0.20038303E+000
 -0.11046725E+000  0.10701004E+000 -0.98102200E-001
 -0.26444927E+000  0.25055242E+000 -0.10304062E+000
 -0.41055644E+000  0.40723482E+000  0.53729653E-002
 -0.31793777E+000  0.30816212E+000  0.14445701E+000
 -0.16395725E+000  0.16704196E+000  0.16212312E+000
 -0.15072066E+000  0.15796092E+000  0.23108868E+000
 -0.66170979E-001 -0.76654312E-001  0.51027859E-001
VECTORS Vtot_CP double
 -0.54732857E+000 -0.13612312E+002  0.47472107E+000
 -0.23374180E+002 -0.31321559E+002  0.40213685E+000
 -0.42186718E+002 -0.45434746E+002 -0.68908608E+000
 -0.54352698E+002 -0.56353009E+002 -0.60698682E+000
 -0.57948459E+002 -0.60878350E+002  0.71902072E-001
 -0.54093422E+002 -0.57711323E+002  0.56333641E+000
 -0.41665094E+002 -0.47023509E+002  0.81001596E+000
 -0.22653904E+002 -0.31873564E+002  0.44670471E+000
  0.10781085E+001 -0.13226483E+002 -0.42174045E-001
VECTORS Vstr_CP double
  0.17641498E+002  0.13443721E+002 -0.76434729E+000
  0.40483099E+002  0.31425996E+002 -0.60251988E+000
  0.59276251E+002  0.45541756E+002  0.59098388E+000
  0.71288249E+002  0.56603561E+002  0.50394620E+000
  0.74737903E+002  0.61285585E+002 -0.66529106E-001
  0.70975485E+002  0.58019485E+002 -0.41887940E+000
  0.58701137E+002  0.47190551E+002 -0.64789284E+000
  0.39703183E+002  0.32031525E+002 -0.21561604E+000
  0.16055721E+002  0.13149829E+002  0.93201904E-001
VECTORS Vwnd_CP double
  0.17200000E+002  0.00000000E+000  0.00000000E+000
  0.17200000E+002  0.00000000E+000  0.00000000E+000
  0.17200000E+002  0.00000000E+000  0.00000000E+000
  0.17200000E+002  0.00000000E+000  0.00000000E+000
  0.17200000E+002  0.00000000E+000  0.00000000E+000
  0.17200000E+002  0.00000000E+000  0.00000000E+000
  0.17200000E+002  0.00000000E+000  0.00000000E+000
  0.17200000E+002  0.00000000E+000  0.00000000E+000
  0.17200000E+002  0.00000000E+000  0.00000000E+000
VECTORS Tangent double
 -0.57805809E+000 -0.81599551E+000  0.40149590E-003
 -0.77269565E+000 -0.63477239E+000  0.23336698E-002
 -0.77764843E+000 -0.62869873E+000  0.90770900E-003
 -0.77587162E+000 -0.63089061E+000 -0.51701420E-003
 -0.77280864E+000 -0.63463905E+000 -0.28827278E-003
 -0.77420725E+000 -0.63293212E+000 -0.26434911E-003
 -0.77534101E+000 -0.63154281E+000  0.44972883E-004
 -0.77337447E+000 -0.63394946E+000  0.14759587E-003
 -0.77306497E+000 -0.63432168E+000 -0.25610681E-002
VECTORS Normal double
  0.43174231E+000 -0.30543230E+000  0.84871060E+000
  0.40800529E+000 -0.49383354E+000  0.76789330E+000
  0.44548455E+000 -0.55000769E+000  0.70642413E+000
  0.56705315E+000 -0.69772282E+000  0.43775975E+000
  0.63463721E+000 -0.77280513E+000 -0.28000044E-002
  0.56825721E+000 -0.69491237E+000 -0.44065921E+000
  0.44796086E+000 -0.55000884E+000 -0.70485555E+000
  0.40733818E+000 -0.49710277E+000 -0.76613605E+000
  0.32675948E+000 -0.39476355E+000 -0.85871415E+000
VECTORS Orth double
  0.69242142E+000 -0.49077738E+000 -0.52885740E+000
  0.48628502E+000 -0.59429996E+000 -0.64057352E+000
  0.44362870E+000 -0.54975399E+000 -0.70778819E+000
  0.27653925E+000 -0.33935219E+000 -0.89909184E+000
 -0.15542134E-002  0.23468162E-002 -0.99999604E+000
 -0.27872367E+000  0.34131177E+000 -0.89767444E+000
 -0.44517119E+000  0.54648327E+000 -0.70935087E+000
 -0.48576490E+000  0.59244994E+000 -0.64267841E+000
 -0.54368999E+000  0.66467868E+000 -0.51244849E+000
