# vtk DataFile Version 2.0
BldPointCP.BldB
ASCII
 
DATASET POLYDATA
POINTS 9 double
  0.44744869E+001  0.10580587E+002  0.10632510E+003
  0.10890903E+002  0.25947220E+002  0.94555072E+002
  0.16037317E+002  0.38220517E+002  0.82357445E+002
  0.19509269E+002  0.46486597E+002  0.70094502E+002
  0.20618625E+002  0.49129218E+002  0.58090474E+002
  0.19497743E+002  0.46456540E+002  0.46092440E+002
  0.16025917E+002  0.38185265E+002  0.33827217E+002
  0.10880894E+002  0.25926771E+002  0.21606440E+002
  0.44360201E+001  0.10568705E+002  0.98371116E+001
  
POINT_DATA 9
SCALARS Gamma_LL double
LOOKUP_TABLE default
  0.80240252E+002
  0.41003710E+002
  0.20324579E+002
  0.30230284E+002
  0.43423174E+002
  0.37859980E+002
  0.29248693E+002
  0.40490246E+002
  0.44129981E+002
VECTORS Vind_CP double
  0.26574805E-002 -0.51310256E-001 -0.27713005E+000
 -0.33154500E-001 -0.49554450E-001 -0.83809425E-001
 -0.13378323E-001 -0.28388521E-001 -0.51464147E-002
 -0.40623342E-001 -0.12854909E+000 -0.29414726E-001
 -0.87622680E-001 -0.25576686E+000  0.28199450E-002
 -0.58656168E-001 -0.17429042E+000  0.56027548E-001
 -0.28915729E-001 -0.73676183E-001  0.44600904E-001
 -0.42873788E-001 -0.91447401E-001  0.96856108E-001
 -0.50540604E-001 -0.43295028E-001  0.11245005E+000
VECTORS Vtot_CP double
  0.35035542E+002 -0.83090305E+001  0.42079242E+000
  0.63313868E+002 -0.20729476E+002  0.32053252E+000
  0.85531259E+002 -0.30913180E+002 -0.70821678E+000
  0.10084173E+003 -0.36345513E+002 -0.50270239E+000
  0.10596351E+003 -0.37321552E+002  0.97401694E-001
  0.10099870E+003 -0.35481849E+002  0.52735721E+000
  0.85781984E+002 -0.29744009E+002  0.82952400E+000
  0.63721860E+002 -0.20154974E+002  0.40268044E+000
  0.36188171E+002 -0.80346430E+001  0.39833494E-002
VECTORS Vstr_CP double
 -0.17832885E+002  0.82577202E+001 -0.69792246E+000
 -0.46147022E+002  0.20679921E+002 -0.40434194E+000
 -0.68344637E+002  0.30884792E+002  0.70307037E+000
 -0.83682358E+002  0.36216964E+002  0.47328766E+000
 -0.88851133E+002  0.37065785E+002 -0.94581749E-001
 -0.83857355E+002  0.35307558E+002 -0.47132966E+000
 -0.68610899E+002  0.29670332E+002 -0.78492310E+000
 -0.46564734E+002  0.20063527E+002 -0.30582433E+000
 -0.19038711E+002  0.79913480E+001  0.10846670E+000
VECTORS Vwnd_CP double
  0.17200000E+002  0.00000000E+000  0.00000000E+000
  0.17200000E+002  0.00000000E+000  0.00000000E+000
  0.17200000E+002  0.00000000E+000  0.00000000E+000
  0.17200000E+002  0.00000000E+000  0.00000000E+000
  0.17200000E+002  0.00000000E+000  0.00000000E+000
  0.17200000E+002  0.00000000E+000  0.00000000E+000
  0.17200000E+002  0.00000000E+000  0.00000000E+000
  0.17200000E+002  0.00000000E+000  0.00000000E+000
  0.17200000E+002  0.00000000E+000  0.00000000E+000
VECTORS Tangent double
  0.78665138E+000 -0.61739741E+000  0.18749119E-003
  0.92077599E+000 -0.39009162E+000 -0.32891010E-003
  0.92335426E+000 -0.38394909E+000  0.97005338E-004
  0.92293247E+000 -0.38496185E+000  0.18757635E-003
  0.92149445E+000 -0.38839153E+000 -0.30716486E-004
  0.92217322E+000 -0.38677710E+000 -0.19227099E-003
  0.92278988E+000 -0.38530355E+000 -0.62782990E-004
  0.92190832E+000 -0.38740811E+000  0.83186894E-004
  0.92175562E+000 -0.38776767E+000  0.16786216E-002
VECTORS Normal double
  0.32575449E+000  0.41531510E+000  0.84935115E+000
  0.25046993E+000  0.59056480E+000  0.76713625E+000
  0.27211820E+000  0.65459177E+000  0.70530937E+000
  0.34568555E+000  0.82898316E+000  0.43964578E+000
  0.38839087E+000  0.92149304E+000 -0.17618299E-002
  0.34699745E+000  0.82754797E+000 -0.44131295E+000
  0.27346204E+000  0.65504777E+000 -0.70436562E+000
  0.24905641E+000  0.59251070E+000 -0.76609528E+000
  0.19997636E+000  0.47164249E+000 -0.85881477E+000
VECTORS Orth double
  0.52446507E+000  0.66808218E+000 -0.52782818E+000
  0.29905919E+000  0.70644302E+000 -0.64148411E+000
  0.27086639E+000  0.65122401E+000 -0.70889963E+000
  0.16940235E+000  0.40569853E+000 -0.89817122E+000
 -0.71258482E-003 -0.16115864E-002 -0.99999845E+000
 -0.17084886E+000 -0.40690027E+000 -0.89735324E+000
 -0.27143570E+000 -0.64996430E+000 -0.70983735E+000
 -0.29674224E+000 -0.70629033E+000 -0.64272702E+000
 -0.33222889E+000 -0.79195302E+000 -0.51228349E+000
