<?xml version="1.0"?>
<VTKFile type="PolyData" version="0.1" byte_order="LittleEndian">
  <PolyData>
    <Piece NumberOfPoints="    165" NumberOfVerts="  0" NumberOfLines="      0"
           NumberOfStrips="  0" NumberOfPolys="      0">
      <Points>
        <DataArray type="Float32" NumberOfComponents="3" format="ascii">
                       0.34927                       0.07783                     113.18060
                      -6.33972                      -2.05148                     109.61803
                     -12.57779                      -4.04149                     106.06286
                     -18.35720                      -5.89308                     102.50094
                     -20.00145                      -6.42176                     101.43089
                     -23.67311                      -7.60610                      98.92490
                     -28.50923                      -9.17315                      95.31056
                     -32.85717                     -10.59130                      91.65279
                     -36.71431                     -11.85980                      87.95691
                     -40.08657                     -12.97967                      84.23772
                     -42.98628                     -13.95297                      80.51263
                     -45.42805                     -14.78170                      76.79556
                     -47.42267                     -15.46627                      73.09246
                     -48.97548                     -16.00521                      69.40282
                     -50.08792                     -16.39584                      65.72298
                     -50.75774                     -16.63462                      62.04830
                     -50.98154                     -16.71839                      58.37535
                     -50.75789                     -16.64541                      54.70218
                     -50.08716                     -16.41552                      51.02713
                     -48.97186                     -16.03025                      47.34763
                     -47.41406                     -15.49207                      43.66004
                     -45.41356                     -14.80356                      39.96095
                     -42.96740                     -13.96710                      36.24861
                     -40.06839                     -12.98421                      32.52558
                     -36.70652                     -11.85569                      28.79962
                     -32.87335                     -10.58258                      25.08045
                     -28.56379                      -9.16611                      21.37701
                     -23.77884                      -7.60797                      17.69187
                     -20.14999                      -6.43423                      15.11994
                     -18.52513                      -5.91103                      14.01840
                     -12.80947                      -4.07878                      10.34656
                      -6.63411                      -2.10956                       6.67369
                       0.00016                       0.00003                       3.00020
                       0.34927                       0.07783                     113.18060
                       1.78538                       6.86022                     109.44996
                       3.11290                      13.16568                     105.70798
                       4.34336                      19.01210                     101.98904
                       4.69480                      20.67923                     100.88188
                       5.48563                      24.42410                      98.32749
                       6.53990                      29.41134                      94.72927
                       7.50139                      33.94982                      91.15160
                       8.36557                      38.01434                      87.55927
                       9.12779                      41.58195                      83.92987
                       9.78485                      44.63937                      80.25948
                      10.33598                      47.18670                      76.55943
                      10.78259                      49.23469                      72.84686
                      11.12712                      50.79865                      69.13640
                      11.37205                      51.89422                      65.43671
                      11.51939                      52.53470                      61.74991
                      11.57024                      52.72900                      58.07267
                      11.52454                      52.48048                      54.39864
                      11.38122                      51.78742                      50.72126
                      11.13841                      50.64418                      47.03592
                      10.79393                      49.04314                      43.34121
                      10.34533                      46.97483                      39.63981
                       9.78990                      44.42813                      35.93942
                       9.12546                      41.39340                      32.25097
                       8.35108                      37.86611                      28.58429
                       7.46762                      33.84936                      24.94262
                       6.47783                      29.35433                      21.31742
                       5.38510                      24.39538                      17.69085
                       4.56045                      20.65450                      15.14084
                       4.19216                      18.98382                      14.04388
                       2.89853                      13.11730                      10.37612
                       1.50219                       6.79133                       6.69172
                       0.00016                       0.00003                       3.00020
                       0.34927                       0.07783                     113.18060
                       5.43395                      -4.63069                     109.44432
                      10.15377                      -9.01259                     105.69614
                      14.52799                     -13.07621                     101.97037
                      15.77541                     -14.23477                     100.86106
                      18.57817                     -16.83726                      98.30223
                      22.31200                     -20.30459                      94.70065
                      25.71361                     -23.46171                      91.12453
                      28.76628                     -26.29038                      87.53880
                      31.45356                     -28.77301                      83.91914
                      33.76418                     -30.89774                      80.25819
                      35.69480                     -32.66142                      76.56371
                      37.25002                     -34.06953                      72.85169
                      38.43959                     -35.13334                      69.13829
                      39.27495                     -35.86658                      65.43472
                      39.76683                     -36.28296                      61.74515
                      39.92271                     -36.39322                      58.06691
                      39.74498                     -36.20306                      54.39297
                      39.23129                     -35.71306                      50.71558
                      38.37487                     -34.91873                      47.02956
                      37.16692                     -33.81244                      43.33444
                      35.59809                     -32.38503                      39.63510
                      33.66008                     -30.62746                      35.94088
                      31.34890                     -28.53393                      32.26155
                      28.66578                     -26.10319                      28.60295
                      25.61649                     -23.33816                      24.96421
                      22.21050                     -20.24559                      21.33519
                      18.45692                     -16.83259                      17.70117
                      15.62554                     -14.25519                      15.14769
                      14.36081                     -13.10291                      14.05059
                       9.92031                      -9.05392                      10.38472
                       5.13463                      -4.68652                       6.70021
                       0.00016                       0.00003                       3.00020
                      -0.09588                      -0.03027                      15.12071
                      -2.01680                      -0.63945                      15.12086
                      -4.03262                      -1.28024                      15.12142
                      -6.04804                      -1.92224                      15.12209
                      -8.06313                      -2.56527                      15.12264
                     -10.07795                      -3.20913                      15.12290
                     -12.09255                      -3.85363                      15.12279
                     -14.10699                      -4.49859                      15.12229
                     -16.12133                      -5.14380                      15.12147
                     -18.13565                      -5.78908                      15.12058
                     -20.14999                      -6.43423                      15.11994
                       0.02104                       0.09752                      15.12071
                       0.45512                       2.06546                      15.12817
                       0.91090                       4.13102                      15.13568
                       1.36683                       6.19655                      15.14238
                       1.82289                       8.26204                      15.14784
                       2.27904                      10.32751                      15.15173
                       2.73526                      12.39296                      15.15378
                       3.19154                      14.45838                      15.15382
                       3.64785                      16.52378                      15.15174
                       4.10416                      18.58915                      15.14742
                       4.56045                      20.65450                      15.14084
                       0.07325                      -0.06763                      15.12071
                       1.56083                      -1.42703                      15.12904
                       3.12266                      -2.85343                      15.13740
                       4.68485                      -4.27942                      15.14487
                       6.24736                      -5.70507                      15.15106
                       7.81012                      -7.13044                      15.15562
                       9.37307                      -8.55558                      15.15830
                      10.93615                      -9.98057                      15.15893
                      12.49930                     -11.40546                      15.15741
                      14.06245                     -12.83031                      15.15366
                      15.62554                     -14.25519                      15.14769
                       0.04784                      -0.01082                     101.06356
                      -1.87246                      -0.62193                     101.07784
                      -3.88768                      -1.26432                     101.10150
                      -5.90255                      -1.90754                     101.13248
                      -7.91712                      -2.55145                     101.16923
                      -9.93144                      -3.19593                     101.21027
                     -11.94556                      -3.84082                     101.25417
                     -13.95956                      -4.48598                     101.29957
                     -15.97349                      -5.13129                     101.34512
                     -17.98743                      -5.77660                     101.38937
                     -20.00145                      -6.42176                     101.43089
                       0.16476                       0.11697                     101.06356
                       0.59697                       2.08561                     101.04272
                       1.05124                       4.15180                     101.02008
                       1.50602                       6.21788                     100.99712
                       1.96122                       8.28385                     100.97437
                       2.41673                      10.34976                     100.95245
                       2.87244                      12.41563                     100.93201
                       3.32822                      14.48149                     100.91382
                       3.78396                      16.54736                     100.89870
                       4.23953                      18.61326                     100.88768
                       4.69480                      20.67923                     100.88188
                       0.21697                      -0.04818                     101.06356
                       1.70621                      -1.40630                     101.04150
                       3.26948                      -2.83166                     101.01750
                       4.83285                      -4.25691                     100.99301
                       6.39627                      -5.68209                     100.96851
                       7.95971                      -7.10726                     100.94457
                       9.52311                      -8.53245                     100.92187
                      11.08644                      -9.95774                     100.90117
                      12.64964                     -11.38318                     100.88338
                      14.21265                     -12.80884                     100.86960
                      15.77541                     -14.23477                     100.86106
        </DataArray>
      </Points>
      <PointData>
        <DataArray type="Float32" Name="TranslationalVelocity" NumberOfComponents="3" format="ascii">
                       3.34191                       0.83553                      -0.01342
                       6.80943                     -11.40665                       0.78959
                       9.93267                     -22.89845                       1.73529
                      12.76422                     -33.64079                       2.71686
                      13.55939                     -36.71847                       3.01292
                      15.32710                     -43.62952                       3.68067
                      17.69844                     -52.78965                       4.46966
                      19.99128                     -61.07126                       4.94876
                      22.31199                     -68.44263                       5.05175
                      24.70029                     -74.89924                       4.82353
                      27.10159                     -80.46489                       4.39894
                      29.38879                     -85.17805                       3.93655
                      31.41977                     -89.06719                       3.55161
                      33.08172                     -92.13789                       3.29251
                      34.30649                     -94.37423                       3.15329
                      35.06417                     -95.74548                       3.09930
                      35.34798                     -96.21988                       3.08848
                      35.16761                     -95.77628                       3.08197
                      34.54403                     -94.40766                       3.04882
                      33.50561                     -92.12311                       2.96710
                      32.07907                     -88.94423                       2.82055
                      30.29000                     -84.89938                       2.59620
                      28.16878                     -80.01759                       2.28701
                      25.74897                     -74.32092                       1.89375
                      23.07117                     -67.82147                       1.43226
                      20.18890                     -60.52311                       0.94632
                      17.15685                     -52.42101                       0.50478
                      14.01233                     -43.50877                       0.17992
                      11.75635                     -36.78841                       0.05748
                      10.77711                     -33.79163                       0.03280
                       7.40056                     -23.30400                      -0.00263
                       3.82051                     -12.04704                      -0.00091
                      -0.00027                      -0.00041                       0.00017
                       3.34191                       0.83553                      -0.01342
                      -9.38357                       3.35036                      -0.33850
                     -21.30674                       5.61517                      -0.75137
                     -32.38943                       7.75684                      -1.05035
                     -35.54822                       8.38758                      -1.10279
                     -42.63100                       9.86757                      -1.12553
                     -52.05247                      11.98464                      -0.94970
                     -60.61436                      14.05967                      -0.61624
                     -68.27172                      16.02150                      -0.23729
                     -74.98911                      17.76597                       0.06808
                     -80.74982                      19.19197                       0.22710
                     -85.55643                      20.24462                       0.23925
                     -89.42435                      20.92564                       0.15308
                     -92.37328                      21.27829                       0.03068
                     -94.42288                      21.37343                      -0.07497
                     -95.59258                      21.28634                      -0.13560
                     -95.90034                      21.07603                      -0.14986
                     -95.36000                      20.77995                      -0.13520
                     -93.98119                      20.41208                      -0.11781
                     -91.76885                      19.96755                      -0.12341
                     -88.72565                      19.42230                      -0.16822
                     -84.85150                      18.73404                      -0.25023
                     -80.14143                      17.85172                      -0.34667
                     -74.58895                      16.72695                      -0.41772
                     -68.18975                      15.33147                      -0.42234
                     -60.94347                      13.67440                      -0.34744
                     -52.85682                      11.79467                      -0.21906
                     -43.94033                       9.73935                      -0.08976
                     -37.20929                       8.21846                      -0.03184
                     -34.20093                       7.54854                      -0.01939
                     -23.63372                       5.21165                      -0.00111
                     -12.23653                       2.70044                      -0.00009
                      -0.00027                      -0.00041                       0.00017
                       3.34191                       0.83553                      -0.01342
                      11.44720                      10.07700                      -0.63407
                      18.88329                      18.65309                      -1.30156
                      25.79759                      26.53587                      -1.78453
                      27.78724                      28.76306                      -1.87367
                      32.33235                      33.69485                      -1.91613
                      38.54691                      40.08974                      -1.63671
                      44.35581                      45.75107                      -1.11795
                      49.65832                      50.72919                      -0.54052
                      54.32982                      55.10244                      -0.08030
                      58.25679                      58.95844                       0.15454
                      61.37542                      62.36327                       0.15501
                      63.69123                      65.33998                      -0.00778
                      65.26806                      67.86767                      -0.23191
                      66.20569                      69.88887                      -0.42677
                      66.61206                      71.32585                      -0.54104
                      66.57196                      72.10233                      -0.57161
                      66.12898                      72.15669                      -0.55207
                      65.28278                      71.44933                      -0.53224
                      63.98964                      69.96798                      -0.55520
                      62.17445                      67.72821                      -0.63713
                      59.74788                      64.76644                      -0.75630
                      56.62967                      61.12622                      -0.85849
                      52.77746                      56.84376                      -0.88234
                      48.19580                      51.94079                      -0.78771
                      42.93155                      46.42229                      -0.57851
                      37.06105                      40.27890                      -0.31343
                      30.65738                      33.49557                      -0.07891
                      25.88389                      28.35933                       0.02379
                      23.76655                      26.06166                       0.04950
                      16.36837                      17.99851                       0.09834
                       8.44722                       9.31511                       0.08620
                      -0.00027                      -0.00041                       0.00017
                       0.05863                      -0.17514                       0.00052
                       1.16115                      -3.64996                      -0.00006
                       2.32449                      -7.30789                      -0.00323
                       3.49329                     -10.97528                      -0.00760
                       4.66669                     -14.65066                      -0.01170
                       5.84384                     -18.33256                      -0.01400
                       7.02392                     -22.01950                      -0.01294
                       8.20605                     -25.71000                      -0.00691
                       9.38940                     -29.40261                       0.00575
                      10.57311                     -33.09590                       0.02666
                      11.75635                     -36.78841                       0.05748
                      -0.17154                       0.03545                       0.00052
                      -3.72172                       0.81895                       0.00436
                      -7.44656                       1.64130                       0.00819
                     -11.17000                       2.46362                       0.01126
                     -14.89223                       3.28592                       0.01306
                     -18.61339                       4.10817                       0.01305
                     -22.33367                       4.93038                       0.01070
                     -26.05323                       5.75252                       0.00544
                     -29.77225                       6.57458                      -0.00333
                     -33.49088                       7.39658                      -0.01572
                     -37.20929                       8.21846                      -0.03184
                       0.12592                       0.12949                       0.00052
                       2.58220                       2.81687                       0.02175
                       5.16354                       5.64274                       0.04241
                       7.74776                       8.47321                       0.06042
                      10.33446                      11.30760                       0.07475
                      12.92322                      14.14526                       0.08439
                      15.51366                      16.98553                       0.08828
                      18.10536                      19.82772                       0.08537
                      20.69791                      22.67119                       0.07451
                      23.29089                      25.51528                       0.05443
                      25.88389                      28.35933                       0.02379
                       1.77751                       0.00836                      -0.00227
                       2.89016                      -3.48855                       0.12425
                       4.06328                      -7.16600                       0.31857
                       5.24131                     -10.84952                       0.56583
                       6.42361                     -14.53804                       0.85604
                       7.60941                     -18.23055                       1.17969
                       8.79786                     -21.92604                       1.52781
                       9.98802                     -25.62354                       1.89212
                      11.17896                     -29.32209                       2.26515
                      12.36973                     -33.02074                       2.64051
                      13.55939                     -36.71847                       3.01292
                       1.54733                       0.21894                      -0.00227
                      -2.02495                       1.00263                      -0.12543
                      -5.76610                       1.82441                      -0.26009
                      -9.49997                       2.64553                      -0.39598
                     -13.22793                       3.46617                      -0.52899
                     -16.95135                       4.28650                      -0.65542
                     -20.67160                       5.10665                      -0.77210
                     -24.39005                       5.92675                      -0.87647
                     -28.10806                       6.74689                      -0.96669
                     -31.82701                       7.56717                      -1.04208
                     -35.54822                       8.38758                      -1.10279
                       1.84480                       0.31299                      -0.00227
                       4.31724                       3.02457                      -0.21000
                       6.91657                       5.87602                      -0.43348
                       9.51953                       8.73193                      -0.65773
                      12.12544                      11.59127                      -0.87799