<?xml version="1.0"?>
<VTKFile type="PolyData" version="0.1" byte_order="LittleEndian">
  <PolyData>
    <Piece NumberOfPoints="     10" NumberOfVerts="  0" NumberOfLines="      9"
           NumberOfStrips="  0" NumberOfPolys="      0">
      <Points>
        <DataArray type="Float32" NumberOfComponents="3" format="ascii">
                       0.03561                       0.00625                     113.18187
                     -20.45701                      -1.85205                     100.98038
                     -34.89635                      -3.16779                      88.74218
                     -46.95994                      -4.27540                      76.48018
                     -52.99707                      -4.83268                      64.23526
                     -52.99886                      -4.83488                      51.99353
                     -46.96085                      -4.28377                      39.74999
                     -34.89947                      -3.17124                      27.48228
                     -20.46772                      -1.85511                      15.24106
                       0.00016                       0.00004                       3.00011
        </DataArray>
      </Points>
      <PointData>
        <DataArray type="Float32" Name="TranslationalVelocity" NumberOfComponents="3" format="ascii">
                       1.48812                       0.27652                      -0.01941
                       3.82726                     -37.06996                       1.69461
                       6.22143                     -63.70469                       1.94829
                       9.05901                     -86.03177                       1.18693
                      10.32280                     -97.39193                       1.04186
                      10.29202                     -97.49583                       1.04925
                       8.91447                     -86.22929                       0.82536
                       5.86082                     -63.84503                      -0.05007
                       3.34841                     -37.13587                      -0.02551
                       0.00187                       0.00059                       0.00178
        </DataArray>
        <DataArray type="Float32" Name="RotationalVelocity" NumberOfComponents="3" format="ascii">
                      -0.02171                       0.07550                       1.80556
                      -0.02431                       0.07556                       1.81674
                      -0.05535                      -0.04961                       1.79602
                      -0.04662                      -0.04767                       1.80313
                      -0.01950                      -0.00060                       1.84390
                       0.00245                       0.00494                       1.85653
                       0.03781                       0.06821                       1.81488
                       0.07079                       0.04158                       1.79302
                       0.01812                      -0.00998                       1.81686
                       0.01262                       0.00103                       1.80150
        </DataArray>
        <DataArray type="Float32" Name="TranslationalAcceleration" NumberOfComponents="3" format="ascii">
                      27.14367                       0.52485                       0.59214
                       7.51100                      -5.94482                      32.06384
                       5.35767                     -14.03341                      42.41245
                      23.35799                     -30.06704                      25.23939
                      32.64701                     -40.98755                      23.15838
                      32.52364                     -42.72255                      22.87833
                      17.50939                     -32.79709                      17.74550
                       4.26549                     -13.68882                       4.60509
                      -3.39334                      -5.50131                       0.84048
                      -0.12714                      -0.03118                       0.06291
        </DataArray>
        <DataArray type="Float32" Name="OrientationX" NumberOfComponents="3" format="ascii">
                       0.09045                      -0.99590                       0.00010
                      -0.99575                      -0.09208                       0.00024
                      -0.99554                      -0.09432                       0.00157
                      -0.99575                      -0.09210                       0.00045
                      -0.99592                      -0.09025                      -0.00009
                      -0.99596                      -0.08982                      -0.00088
                      -0.99610                      -0.08819                      -0.00220
                      -0.99606                      -0.08865                       0.00068
                      -0.99600                      -0.08941                       0.00006
                      -0.99593                      -0.09009                      -0.00217
        </DataArray>
        <DataArray type="Float32" Name="OrientationY" NumberOfComponents="3" format="ascii">
                      -0.99590                      -0.09045                      -0.00186
                      -0.09208                       0.99575                       0.00041
                      -0.09432                       0.99554                       0.00146
                      -0.09210                       0.99575                       0.00053
                      -0.09025                       0.99592                       0.00002
                      -0.08982                       0.99596                      -0.00052
                      -0.08819                       0.99610                      -0.00150
                      -0.08865                       0.99606                      -0.00003
                      -0.08941                       0.99600                       0.00004
                      -0.09009                       0.99593                       0.00005
        </DataArray>
        <DataArray type="Float32" Name="OrientationZ" NumberOfComponents="3" format="ascii">
                       0.00186                       0.00007                      -1.00000
                      -0.00028                       0.00038                      -1.00000
                      -0.00170                       0.00131                      -1.00000
                      -0.00050                       0.00049                      -1.00000
                       0.00008                       0.00003                      -1.00000
                       0.00092                      -0.00044                      -1.00000
                       0.00232                      -0.00130                      -1.00000
                      -0.00068                      -0.00009                      -1.00000
                      -0.00006                       0.00004                      -1.00000
                       0.00216                       0.00024                      -1.00000
        </DataArray>
      </PointData>
      <Lines>
        <DataArray type="Int32" Name="connectivity" format="ascii">
      0      1
      1      2
      2      3
      3      4
      4      5
      5      6
      6      7
      7      8
      8      9
        </DataArray>
        <DataArray type="Int32" Name="offsets" format="ascii">
      2
      4
      6
      8
     10
     12
     14
     16
     18
        </DataArray>
      </Lines>
    </Piece>
  </PolyData>
</VTKFile>
