<?xml version="1.0"?>
<VTKFile type="PolyData" version="0.1" byte_order="LittleEndian">
  <PolyData>
    <Piece NumberOfPoints="    165" NumberOfVerts="  0" NumberOfLines="      0"
           NumberOfStrips="  0" NumberOfPolys="      0">
      <Points>
        <DataArray type="Float32" NumberOfComponents="3" format="ascii">
                      -0.00000                       0.00000                     113.18291
                      -6.96145                       0.00000                     109.51015
                     -13.44279                       0.00000                     105.83738
                     -19.44404                       0.00000                     102.16462
                     -21.15080                       0.00000                     101.06279
                     -24.96519                       0.00000                      98.49185
                     -30.00624                       0.00000                      94.81909
                     -34.56719                       0.00000                      91.14632
                     -38.64804                       0.00000                      87.47356
                     -42.24878                       0.00000                      83.80080
                     -45.36943                       0.00000                      80.12804
                     -48.00998                       0.00000                      76.45528
                     -50.17043                       0.00000                      72.78251
                     -51.85078                       0.00000                      69.10975
                     -53.05103                       0.00000                      65.43698
                     -53.77118                       0.00000                      61.76422
                     -54.01123                       0.00000                      58.09145
                     -53.77118                       0.00000                      54.41869
                     -53.05103                       0.00000                      50.74593
                     -51.85078                       0.00000                      47.07316
                     -50.17043                       0.00000                      43.40040
                     -48.00998                       0.00000                      39.72764
                     -45.36943                       0.00000                      36.05487
                     -42.24878                       0.00000                      32.38211
                     -38.64804                       0.00000                      28.70934
                     -34.56719                       0.00000                      25.03658
                     -30.00624                       0.00000                      21.36382
                     -24.96519                       0.00000                      17.69106
                     -21.15080                       0.00000                      15.12012
                     -19.44404                       0.00000                      14.01829
                     -13.44279                       0.00000                      10.34553
                      -6.96145                       0.00000                       6.67276
                       0.00000                       0.00000                       3.00000
                       0.00000                       0.00000                     113.18291
                       3.48072                       6.02879                     109.51015
                       6.72140                      11.64180                     105.83738
                       9.72202                      16.83904                     102.16462
                      10.57540                      18.31713                     101.06279
                      12.48260                      21.62049                      98.49185
                      15.00312                      25.98617                      94.81909
                      17.28359                      29.93606                      91.14632
                      19.32402                      33.47018                      87.47356
                      21.12439                      36.58852                      83.80080
                      22.68472                      39.29108                      80.12804
                      24.00499                      41.57787                      76.45528
                      25.08522                      43.44887                      72.78251
                      25.92539                      44.90409                      69.10975
                      26.52551                      45.94354                      65.43698
                      26.88559                      46.56721                      61.76422
                      27.00562                      46.77510                      58.09145
                      26.88559                      46.56721                      54.41869
                      26.52551                      45.94354                      50.74593
                      25.92539                      44.90409                      47.07316
                      25.08522                      43.44887                      43.40040
                      24.00499                      41.57787                      39.72764
                      22.68472                      39.29108                      36.05487
                      21.12439                      36.58852                      32.38211
                      19.32402                      33.47018                      28.70934
                      17.28359                      29.93606                      25.03658
                      15.00312                      25.98617                      21.36382
                      12.48260                      21.62049                      17.69106
                      10.57540                      18.31713                      15.12012
                       9.72202                      16.83904                      14.01829
                       6.72140                      11.64180                      10.34553
                       3.48072                       6.02879                       6.67276
                       0.00000                       0.00000                       3.00000
                       0.00000                      -0.00000                     113.18291
                       3.48072                      -6.02879                     109.51015
                       6.72140                     -11.64180                     105.83738
                       9.72202                     -16.83904                     102.16462
                      10.57540                     -18.31713                     101.06279
                      12.48260                     -21.62049                      98.49185
                      15.00312                     -25.98617                      94.81909
                      17.28359                     -29.93606                      91.14632
                      19.32402                     -33.47018                      87.47356
                      21.12439                     -36.58852                      83.80080
                      22.68472                     -39.29108                      80.12804
                      24.00499                     -41.57787                      76.45528
                      25.08522                     -43.44887                      72.78251
                      25.92539                     -44.90409                      69.10975
                      26.52551                     -45.94354                      65.43698
                      26.88559                     -46.56721                      61.76422
                      27.00562                     -46.77510                      58.09145
                      26.88559                     -46.56721                      54.41869
                      26.52551                     -45.94354                      50.74593
                      25.92539                     -44.90409                      47.07316
                      25.08522                     -43.44887                      43.40040
                      24.00499                     -41.57787                      39.72764
                      22.68472                     -39.29108                      36.05487
                      21.12439                     -36.58852                      32.38211
                      19.32402                     -33.47018                      28.70934
                      17.28359                     -29.93606                      25.03658
                      15.00312                     -25.98617                      21.36382
                      12.48260                     -21.62049                      17.69106
                      10.57540                     -18.31713                      15.12012
                       9.72202                     -16.83904                      14.01829
                       6.72140                     -11.64180                      10.34553
                       3.48072                      -6.02879                       6.67276
                       0.00000                       0.00000                       3.00000
                      -0.10000                       0.00000                      15.12012
                      -2.11508                       0.00000                      15.12012
                      -4.23016                       0.00000                      15.12012
                      -6.34524                       0.00000                      15.12012
                      -8.46032                       0.00000                      15.12012
                     -10.57540                       0.00000                      15.12012
                     -12.69048                       0.00000                      15.12012
                     -14.80556                       0.00000                      15.12012
                     -16.92064                       0.00000                      15.12012
                     -19.03572                       0.00000                      15.12012
                     -21.15080                       0.00000                      15.12012
                       0.05000                       0.08660                      15.12012
                       1.05754                       1.83171                      15.12012
                       2.11508                       3.66343                      15.12012
                       3.17262                       5.49514                      15.12012
                       4.23016                       7.32685                      15.12012
                       5.28770                       9.15856                      15.12012
                       6.34524                      10.99028                      15.12012
                       7.40278                      12.82199                      15.12012
                       8.46032                      14.65370                      15.12012
                       9.51786                      16.48541                      15.12012
                      10.57540                      18.31713                      15.12012
                       0.05000                      -0.08660                      15.12012
                       1.05754                      -1.83171                      15.12012
                       2.11508                      -3.66343                      15.12012
                       3.17262                      -5.49514                      15.12012
                       4.23016                      -7.32685                      15.12012
                       5.28770                      -9.15856                      15.12012
                       6.34524                     -10.99028                      15.12012
                       7.40278                     -12.82199                      15.12012
                       8.46032                     -14.65370                      15.12012
                       9.51786                     -16.48541                      15.12012
                      10.57540                     -18.31713                      15.12012
                      -0.10000                       0.00000                     101.06279
                      -2.11508                       0.00000                     101.06279
                      -4.23016                       0.00000                     101.06279
                      -6.34524                       0.00000                     101.06279
                      -8.46032                       0.00000                     101.06279
                     -10.57540                       0.00000                     101.06279
                     -12.69048                       0.00000                     101.06279
                     -14.80556                       0.00000                     101.06279
                     -16.92064                       0.00000                     101.06279
                     -19.03572                       0.00000                     101.06279
                     -21.15080                       0.00000                     101.06279
                       0.05000                       0.08660                     101.06279
                       1.05754                       1.83171                     101.06279
                       2.11508                       3.66343                     101.06279
                       3.17262                       5.49514                     101.06279
                       4.23016                       7.32685                     101.06279
                       5.28770                       9.15856                     101.06279
                       6.34524                      10.99028                     101.06279
                       7.40278                      12.82199                     101.06279
                       8.46032                      14.65370                     101.06279
                       9.51786                      16.48541                     101.06279
                      10.57540                      18.31713                     101.06279
                       0.05000                      -0.08660                     101.06279
                       1.05754                      -1.83171                     101.06279
                       2.11508                      -3.66343                     101.06279
                       3.17262                      -5.49514                     101.06279
                       4.23016                      -7.32685                     101.06279
                       5.28770                      -9.15856                     101.06279
                       6.34524                     -10.99028                     101.06279
                       7.40278                     -12.82199                     101.06279
                       8.46032                     -14.65370                     101.06279
                       9.51786                     -16.48541                     101.06279
                      10.57540                     -18.31713                     101.06279
        </DataArray>
      </Points>
      <PointData>
        <DataArray type="Float32" Name="RefOrientationX" NumberOfComponents="3" format="ascii">
                      -0.46663                       0.00000                       0.88445
                      -0.49301                       0.00000                       0.87002
                      -0.52200                       0.00000                       0.85294
                      -0.54237                       0.00000                       0.84014
                      -0.55891                       0.00000                       0.82923
                      -0.58886                       0.00000                       0.80824
                      -0.62719                       0.00000                       0.77887
                      -0.66896                       0.00000                       0.74329
                      -0.71407                       0.00000                       0.70007
                      -0.76206                       0.00000                       0.64750
                      -0.81194                       0.00000                       0.58375
                      -0.86193                       0.00000                       0.50702
                      -0.90935                       0.00000                       0.41604
                      -0.95053                       0.00000                       0.31063
                      -0.98131                       0.00000                       0.19241
                      -0.99787                       0.00000                       0.06522
                      -0.99787                       0.00000                      -0.06522
                      -0.98131                       0.00000                      -0.19241
                      -0.95053                       0.00000                      -0.31063
                      -0.90935                       0.00000                      -0.41604
                      -0.86193                       0.00000                      -0.50702
                      -0.81194                       0.00000                      -0.58375
                      -0.76206                       0.00000                      -0.64750
                      -0.71407                       0.00000                      -0.70007
                      -0.66896                       0.00000                      -0.74329
                      -0.62719                       0.00000                      -0.77887
                      -0.58886                       0.00000                      -0.80824
                      -0.55891                       0.00000                      -0.82923
                      -0.54237                       0.00000                      -0.84014
                      -0.52200                       0.00000                      -0.85294
                      -0.49301                       0.00000                      -0.87002
                      -0.46663                       0.00000                      -0.88445
                      -0.46663                       0.00000                      -0.88445
                       0.23331                       0.40411                       0.88445
                       0.24651                       0.42696                       0.87002
                       0.26100                       0.45207                       0.85294
                       0.27118                       0.46971                       0.84014
                       0.27945                       0.48403                       0.82923
                       0.29443                       0.50997                       0.80824
                       0.31360                       0.54316                       0.77887
                       0.33448                       0.57934                       0.74329
                       0.35704                       0.61841                       0.70007
                       0.38103                       0.65997                       0.64750
                       0.40597                       0.70316                       0.58375
                       0.43097                       0.74646                       0.50702
                       0.45467                       0.78752                       0.41604
                       0.47527                       0.82318                       0.31063
                       0.49066                       0.84984                       0.19241
                       0.49894                       0.86418                       0.06522
                       0.49894                       0.86418                      -0.06522
                       0.49066                       0.84984                      -0.19241
                       0.47527                       0.82318                      -0.31063
                       0.45467                       0.78752                      -0.41604
                       0.43097                       0.74646                      -0.50702
                       0.40597                       0.70316                      -0.58375
                       0.38103                       0.65997                      -0.64750
                       0.35704                       0.61841                      -0.70007
                       0.33448                       0.57934                      -0.74329
                       0.31360                       0.54316                      -0.77887
                       0.29443                       0.50997                      -0.80824
                       0.27945                       0.48403                      -0.82923
                       0.27118                       0.46971                      -0.84014
                       0.26100                       0.45207                      -0.85294
                       0.24651                       0.42696                      -0.87002
                       0.23331                       0.40411                      -0.88445
                       0.23331                       0.40411                      -0.88445
                       0.23331                      -0.40411                       0.88445
                       0.24651                      -0.42696                       0.87002
                       0.26100                      -0.45207                       0.85294
                       0.27118                      -0.46971                       0.84014
                       0.27945                      -0.48403                       0.82923
                       0.29443                      -0.50997                       0.80824
                       0.31360                      -0.54316                       0.77887
                       0.33448                      -0.57934                       0.74329
                       0.35704                      -0.61841                       0.70007
                       0.38103                      -0.65997                       0.64750
                       0.40597                      -0.70316                       0.58375
                       0.43097                      -0.74646                       0.50702
                       0.45467                      -0.78752                       0.41604
                       0.47527                      -0.82318                       0.31063
                       0.49066                      -0.84984                       0.19241
                       0.49894                      -0.86418                       0.06522
                       0.49894                      -0.86418                      -0.06522
                       0.49066                      -0.84984                      -0.19241
                       0.47527                      -0.82318                      -0.31063
                       0.45467                      -0.78752                      -0.41604
                       0.43097                      -0.74646                      -0.50702
                       0.40597                      -0.70316                      -0.58375
                       0.38103                      -0.65997                      -0.64750
                       0.35704                      -0.61841                      -0.70007
                       0.33448                      -0.57934                      -0.74329
                       0.31360                      -0.54316                      -0.77887
                       0.29443                      -0.50997                      -0.80824
                       0.27945                      -0.48403                      -0.82923
                       0.27118                      -0.46971                      -0.84014
                       0.26100                      -0.45207                      -0.85294
                       0.24651                      -0.42696                      -0.87002
                       0.23331                      -0.40411                      -0.88445
                       0.23331                      -0.40411                      -0.88445
                       0.00000                       0.00000                      -1.00000
                       0.00000                       0.00000                      -1.00000
                       0.00000                       0.00000                      -1.00000
                       0.00000                       0.00000                      -1.00000
                       0.00000                       0.00000                      -1.00000
                       0.00000                       0.00000                      -1.00000
                       0.00000                       0.00000                      -1.00000
                       0.00000                       0.00000                      -1.00000
                       0.00000                       0.00000                      -1.00000
                       0.00000                       0.00000                      -1.00000
                       0.00000                       0.00000                      -1.00000
                       0.00000                       0.00000                      -1.00000
                       0.00000                       0.00000                      -1.00000
                       0.00000                       0.00000                      -1.00000
                       0.00000                       0.00000                      -1.00000
                       0.00000                       0.00000                      -1.00000
                       0.00000                       0.00000                      -1.00000
                       0.00000                       0.00000                      -1.00000
                       0.00000                       0.00000                      -1.00000
                       0.00000                       0.00000                      -1.00000
                       0.00000                       0.00000                      -1.00000
                       0.00000                       0.00000                      -1.00000
                       0.00000                      -0.00000                      -1.00000
                       0.00000                      -0.00000                      -1.00000
                       0.00000                      -0.00000                      -1.00000
                       0.00000                      -0.00000                      -1.00000
                       0.00000                      -0.00000                      -1.00000
                       0.00000                      -0.00000                      -1.00000
                       0.00000                      -0.00000                      -1.00000
                       0.00000                      -0.00000                      -1.00000
                       0.00000                      -0.00000                      -1.00000
                       0.00000                      -0.00000                      -1.00000
                       0.00000                      -0.00000                      -1.00000
                       0.00000                       0.00000                      -1.00000
                       0.00000                       0.00000                      -1.00000
                       0.00000                       0.00000                      -1.00000
                       0.00000                       0.00000                      -1.00000
                       0.00000                       0.00000                      -1.00000
                       0.00000                       0.00000                      -1.00000
                       0.00000                       0.00000                      -1.00000
                       0.00000                       0.00000                      -1.00000
                       0.00000                       0.00000                      -1.00000
                       0.00000                       0.00000                      -1.00000
                       0.00000                       0.00000                      -1.00000
                       0.00000                       0.00000                      -1.00000
                       0.00000                       0.00000                      -1.00000
                       0.00000                       0.00000                      -1.00000
                       0.00000                       0.00000                      -1.00000
                       0.00000                       0.00000                      -1.00000
                       0.00000                       0.00000                      -1.00000
                       0.00000                       0.00000                      -1.00000
                       0.00000                       0.00000                      -1.00000
                       0.00000                       0.00000                      -1.00000
                       0.00000                       0.00000                      -1.00000
                       0.00000                       0.00000                      -1.00000
                       0.00000                      -0.00000                      -1.00000
                       0.00000                      -0.00000                      -1.00000
                       0.00000                      -0.00000                      -1.00000
                       0.00000                      -0.00000                      -1.00000
                       0.00000                      -0.00000                      -1.00000