# vtk DataFile Version 2.0
BldPointCP.BldA
ASCII
 
DATASET POLYDATA
POINTS 9 double
 -0.11362320E+002 -0.12353242E+001  0.10638761E+003
 -0.27917146E+002 -0.30455015E+001  0.94632228E+002
 -0.41091682E+002 -0.44973574E+001  0.82377790E+002
 -0.50000257E+002 -0.54860010E+001  0.70108694E+002
 -0.52884721E+002 -0.58089436E+001  0.58125904E+002
 -0.50002864E+002 -0.54931919E+001  0.46143801E+002
 -0.41094966E+002 -0.45051037E+001  0.33872118E+002
 -0.27927021E+002 -0.30496025E+001  0.21611061E+002
 -0.11394104E+002 -0.12417461E+001  0.98266768E+001
  
POINT_DATA 9
SCALARS Gamma_LL double
LOOKUP_TABLE default
 -0.28342566E+001
 -0.79388323E+002
 -0.69385444E+002
 -0.66057483E+002
 -0.66650169E+002
 -0.63428619E+002
 -0.65857825E+002
 -0.77955958E+002
 -0.39714610E+002
VECTORS Vind_CP double
  0.27444324E-001 -0.89055692E-001  0.30536724E-001
 -0.17079899E+000  0.10701488E-002  0.17520439E+000
 -0.17818427E+000 -0.74827286E-002  0.12825081E+000
 -0.25251368E+000 -0.15534394E-001  0.85829049E-001
 -0.31684249E+000 -0.21242728E-001  0.71495190E-003
 -0.24222696E+000 -0.17448375E-001 -0.79689831E-001
 -0.16730266E+000 -0.94979065E-002 -0.11892133E+000
 -0.17836415E+000 -0.69487844E-002 -0.17594740E+000
 -0.68749309E-001 -0.61706607E-002 -0.30759944E-001
VECTORS Vtot_CP double
  0.13885117E+002  0.20418418E+002 -0.10678577E+001
  0.10958731E+002  0.50926220E+002 -0.20090730E+001
  0.78067819E+001  0.75361988E+002 -0.17645168E+001
  0.52690219E+001  0.92060122E+002 -0.12697894E+001
  0.44761897E+001  0.97598904E+002 -0.12671568E+001
  0.53788802E+001  0.92225868E+002 -0.12113018E+001
  0.80785564E+001  0.75540154E+002 -0.62815647E+000
  0.11412212E+002  0.51026206E+002 -0.16367470E+000
  0.14886055E+002  0.20693617E+002 -0.19427728E-001
VECTORS Vstr_CP double
  0.33423276E+001 -0.20507473E+002  0.10983944E+001
  0.60704702E+001 -0.50925150E+002  0.21842774E+001
  0.92150339E+001 -0.75369470E+002  0.18927676E+001
  0.11678464E+002 -0.92075656E+002  0.13556185E+001
  0.12406968E+002 -0.97620147E+002  0.12678718E+001
  0.11578893E+002 -0.92243316E+002  0.11316120E+001
  0.89541410E+001 -0.75549652E+002  0.50923514E+000
  0.56094242E+001 -0.51033155E+002 -0.12272705E-001
  0.22451958E+001 -0.20699788E+002 -0.11332216E-001
VECTORS Vwnd_CP double
  0.17200000E+002  0.00000000E+000  0.00000000E+000
  0.17200000E+002  0.00000000E+000  0.00000000E+000
  0.17200000E+002  0.00000000E+000  0.00000000E+000
  0.17200000E+002  0.00000000E+000  0.00000000E+000
  0.17200000E+002  0.00000000E+000  0.00000000E+000
  0.17200000E+002  0.00000000E+000  0.00000000E+000
  0.17200000E+002  0.00000000E+000  0.00000000E+000
  0.17200000E+002  0.00000000E+000  0.00000000E+000
  0.17200000E+002  0.00000000E+000  0.00000000E+000
VECTORS Tangent double
 -0.78637341E+000  0.61774903E+000 -0.17324318E-002
 -0.11146410E+000  0.99376811E+000  0.83321805E-003
 -0.11163164E+000  0.99374916E+000  0.98732341E-003
 -0.10881843E+000  0.99406164E+000  0.11901005E-003
 -0.10731873E+000  0.99422464E+000 -0.25646591E-003
 -0.10618266E+000  0.99434615E+000 -0.98751936E-003
 -0.10582424E+000  0.99438466E+000 -0.61554063E-003
 -0.10670480E+000  0.99429074E+000  0.74142609E-004
 -0.10756557E+000  0.99419799E+000  0.86285314E-004
VECTORS Normal double
 -0.39957150E+000 -0.50649809E+000  0.76406956E+000
 -0.64071977E+000 -0.72505968E-001  0.76434355E+000
 -0.70746610E+000 -0.80170015E-001  0.70218550E+000
 -0.89092779E+000 -0.97581621E-001  0.44353749E+000
 -0.99422464E+000 -0.10731866E+000  0.25317668E-003
 -0.89113882E+000 -0.95602014E-001 -0.44354465E+000
 -0.70817603E+000 -0.75799914E-001 -0.70195519E+000
 -0.64163023E+000 -0.68801189E-001 -0.76392215E+000
 -0.50874882E+000 -0.54968655E-001 -0.85915836E+000
VECTORS Orth double
 -0.47112575E+000 -0.60153622E+000 -0.64513154E+000
 -0.75964066E+000 -0.84663008E-001 -0.64480869E+000
 -0.69787541E+000 -0.77687621E-001 -0.71199336E+000
 -0.44091522E+000 -0.48159023E-001 -0.89625581E+000
 -0.22419091E-003 -0.28215532E-003 -0.99999994E+000
  0.44113133E+000  0.46216732E-001 -0.89625173E+000
  0.69806013E+000  0.73847963E-001 -0.71222084E+000
  0.75955562E+000  0.81561731E-001 -0.64530841E+000
  0.85416877E+000  0.92459760E-001 -0.51170979E+000
