# vtk DataFile Version 2.0
BldPointCP.BldB
ASCII
 
DATASET POLYDATA
POINTS 9 double
  0.48326701E+001  0.10408512E+002  0.10633852E+003
  0.11810482E+002  0.25521188E+002  0.94563049E+002
  0.17393406E+002  0.37584613E+002  0.82344929E+002
  0.21166144E+002  0.45731697E+002  0.70085603E+002
  0.22378658E+002  0.48352326E+002  0.58091709E+002
  0.21159661E+002  0.45718359E+002  0.46100370E+002
  0.17386866E+002  0.37568265E+002  0.33840502E+002
  0.11805608E+002  0.25510307E+002  0.21611339E+002
  0.48140857E+001  0.10401986E+002  0.98347235E+001
  
POINT_DATA 9
SCALARS Gamma_LL double
LOOKUP_TABLE default
  0.35761694E+002
  0.19421458E+002
  0.11297451E+002
  0.15331624E+002
  0.19929530E+002
  0.17800053E+002
  0.14857698E+002
  0.20276385E+002
  0.21328000E+002
VECTORS Vind_CP double
 -0.75692763E-002 -0.19777829E-001 -0.10692009E+000
 -0.14841079E-001 -0.21671788E-001 -0.35571847E-001
 -0.69841116E-002 -0.13992422E-001 -0.56919416E-002
 -0.19000208E-001 -0.51003340E-001 -0.14367520E-001
 -0.36070807E-001 -0.94156595E-001  0.46115930E-003
 -0.24593543E-001 -0.64388032E-001  0.21947009E-001
 -0.13044190E-001 -0.30326625E-001  0.19883548E-001
 -0.20229736E-001 -0.39534692E-001  0.43695571E-001
 -0.20420974E-001 -0.19507044E-001  0.54139256E-001
VECTORS Vtot_CP double
  0.35082563E+002 -0.89138016E+001  0.48065085E+000
  0.62691851E+002 -0.22295813E+002  0.22261834E+000
  0.84338390E+002 -0.33109358E+002 -0.68411809E+000
  0.99319153E+002 -0.39181116E+002 -0.44782150E+000
  0.10437686E+003 -0.40556818E+002  0.53546812E-001
  0.99535731E+002 -0.38577581E+002  0.42082960E+000
  0.84623234E+002 -0.32215018E+002  0.68021242E+000
  0.62990508E+002 -0.21777838E+002  0.23072451E+000
  0.35923548E+002 -0.86955505E+001 -0.10845014E+000
VECTORS Vstr_CP double
 -0.17890133E+002  0.88940238E+001 -0.58757094E+000
 -0.45506692E+002  0.22274141E+002 -0.25819018E+000
 -0.67145374E+002  0.33095365E+002  0.67842615E+000
 -0.82138153E+002  0.39130113E+002  0.43345398E+000
 -0.87212927E+002  0.40462662E+002 -0.53085653E-001
 -0.82360324E+002  0.38513193E+002 -0.39888259E+000
 -0.67436278E+002  0.32184691E+002 -0.66032887E+000
 -0.45810737E+002  0.21738303E+002 -0.18702894E+000
 -0.18743969E+002  0.86760434E+001  0.16258940E+000
VECTORS Vwnd_CP double
  0.17200000E+002  0.00000000E+000  0.00000000E+000
  0.17200000E+002  0.00000000E+000  0.00000000E+000
  0.17200000E+002  0.00000000E+000  0.00000000E+000
  0.17200000E+002  0.00000000E+000  0.00000000E+000
  0.17200000E+002  0.00000000E+000  0.00000000E+000
  0.17200000E+002  0.00000000E+000  0.00000000E+000
  0.17200000E+002  0.00000000E+000  0.00000000E+000
  0.17200000E+002  0.00000000E+000  0.00000000E+000
  0.17200000E+002  0.00000000E+000  0.00000000E+000
VECTORS Tangent double
  0.76505404E+000 -0.64396607E+000  0.14155138E-003
  0.90677044E+000 -0.42162467E+000  0.35596108E-004
  0.90825256E+000 -0.41842231E+000  0.25637627E-003
  0.90798937E+000 -0.41899316E+000  0.15713111E-003
  0.90730406E+000 -0.42047513E+000 -0.50074047E-004
  0.90775819E+000 -0.41949376E+000 -0.21349903E-003
  0.90798806E+000 -0.41899604E+000 -0.73363622E-004
  0.90738105E+000 -0.42030896E+000  0.66455718E-004
  0.90732386E+000 -0.42043131E+000  0.95950999E-003
VECTORS Normal double
  0.33900670E+000  0.40293859E+000  0.85012643E+000
  0.27108456E+000  0.58307481E+000  0.76585699E+000
  0.29670993E+000  0.64448815E+000  0.70469727E+000
  0.37575883E+000  0.81446315E+000  0.44210301E+000
  0.42047494E+000  0.90730376E+000 -0.84120935E-003
  0.37603793E+000  0.81394787E+000 -0.44281411E+000
  0.29737250E+000  0.64454632E+000 -0.70436471E+000
  0.27058553E+000  0.58403067E+000 -0.76530494E+000
  0.21607252E+000  0.46434133E+000 -0.85889452E+000
VECTORS Orth double
  0.54750961E+000  0.65034468E+000 -0.52657861E+000
  0.32292496E+000  0.69444683E+000 -0.64301094E+000
  0.29502629E+000  0.63996703E+000 -0.70950806E+000
  0.18536612E+000  0.40136579E+000 -0.89696427E+000
 -0.39913998E-003 -0.74217778E-003 -0.99999964E+000
 -0.18593154E+000 -0.40188786E+000 -0.89661342E+000
 -0.29517331E+000 -0.63953293E+000 -0.70983826E+000
 -0.32162571E+000 -0.69444118E+000 -0.64366789E+000
 -0.36066061E+000 -0.77950282E+000 -0.51215162E+000
