# vtk DataFile Version 2.0

ASCII
 
DATASET POLYDATA
POINTS 210 double
  0.41735217E+000  0.94942577E-001  0.11318030E+003
 -0.19150244E+002 -0.69458123E+001  0.10137424E+003
 -0.32920755E+002 -0.11991053E+002  0.89312647E+002
 -0.44029076E+002 -0.16203842E+002  0.76868300E+002
 -0.49555684E+002 -0.18339058E+002  0.64564165E+002
 -0.49562950E+002 -0.18363869E+002  0.52312024E+002
 -0.43989804E+002 -0.16226985E+002  0.40031116E+002
 -0.32899139E+002 -0.11947944E+002  0.27548828E+002
 -0.19335549E+002 -0.69671658E+001  0.15243606E+002
  0.15456103E-003  0.17675106E-004  0.30001987E+001
 -0.38182099E+001 -0.14218582E+001  0.11308371E+003
 -0.20664405E+002 -0.28015140E+001  0.10136625E+003
 -0.34002397E+002 -0.90892193E+001  0.89308945E+002
 -0.44835592E+002 -0.13884705E+002  0.76846802E+002
 -0.50257173E+002 -0.16195162E+002  0.64552003E+002
 -0.50283013E+002 -0.16179914E+002  0.52325156E+002
 -0.44812730E+002 -0.13760355E+002  0.40038055E+002
 -0.34017740E+002 -0.87101185E+001  0.27557902E+002
 -0.20824577E+002 -0.27206645E+001  0.15248098E+002
 -0.15071659E+001  0.42400585E+001  0.30064506E+001
 -0.37078253E+001 -0.13565276E+001  0.11309174E+003
 -0.20573702E+002 -0.24157413E+001  0.10136280E+003
 -0.34014630E+002 -0.84510023E+001  0.89278104E+002
 -0.44952633E+002 -0.13040400E+002  0.76818593E+002
 -0.50434983E+002 -0.15247104E+002  0.64522534E+002
 -0.50460158E+002 -0.15231039E+002  0.52290491E+002
 -0.44935843E+002 -0.12920892E+002  0.40002021E+002
 -0.34026136E+002 -0.80826507E+001  0.27531504E+002
 -0.20717772E+002 -0.23362666E+001  0.15233640E+002
 -0.12611969E+001  0.42680513E+001  0.30055318E+001
 -0.35954041E+001 -0.12908429E+001  0.11310101E+003
 -0.20474053E+002 -0.20294839E+001  0.10136109E+003
 -0.34015012E+002 -0.78100508E+001  0.89248273E+002
 -0.45057353E+002 -0.12191697E+002  0.76793490E+002
 -0.50599032E+002 -0.14293178E+002  0.64495068E+002
 -0.50622380E+002 -0.14275772E+002  0.52256425E+002
 -0.45044202E+002 -0.12075554E+002  0.39965799E+002
 -0.34024026E+002 -0.74514950E+001  0.27505253E+002
 -0.20603294E+002 -0.19509296E+001  0.15221338E+002
 -0.10147546E+001  0.42936943E+001  0.30043808E+001
 -0.34810442E+001 -0.12242726E+001  0.11311026E+003
 -0.20364222E+002 -0.16430962E+001  0.10136101E+003
 -0.34003101E+002 -0.71666937E+001  0.89219154E+002
 -0.45149453E+002 -0.11338917E+002  0.76771176E+002
 -0.50749229E+002 -0.13333880E+002  0.64469733E+002
 -0.50769780E+002 -0.13314729E+002  0.52222739E+002
 -0.45138851E+002 -0.11224963E+002  0.39928945E+002
 -0.34010650E+002 -0.68169953E+001  0.27478056E+002
 -0.20480413E+002 -0.15650984E+001  0.15209747E+002
 -0.76825535E+000  0.43178925E+001  0.30039342E+001
 -0.33645383E+001 -0.11569896E+001  0.11311962E+003
 -0.20245420E+002 -0.12565703E+001  0.10134736E+003
 -0.33978402E+002 -0.65213525E+001  0.89190680E+002
 -0.45228685E+002 -0.10482350E+002  0.76752287E+002
 -0.50885886E+002 -0.12369492E+002  0.64446764E+002
 -0.50903229E+002 -0.12348366E+002  0.52189267E+002
 -0.45219080E+002 -0.10369649E+002  0.39891463E+002
 -0.33985383E+002 -0.61794134E+001  0.27451870E+002
 -0.20349008E+002 -0.11790917E+001  0.15200273E+002
 -0.52141566E+000  0.43391084E+001  0.30039192E+001
 -0.32458547E+001 -0.10888415E+001  0.11314154E+003
 -0.20115213E+002 -0.87094623E+000  0.10134468E+003
 -0.33940230E+002 -0.58745247E+001  0.89161898E+002
 -0.45290092E+002 -0.96225295E+001  0.76734368E+002
 -0.51006954E+002 -0.11400470E+002  0.64424954E+002
 -0.51023515E+002 -0.11377361E+002  0.52155615E+002
 -0.45283201E+002 -0.95101213E+001  0.39854341E+002
 -0.33947297E+002 -0.55391763E+001  0.27426964E+002
 -0.20207951E+002 -0.79360345E+000  0.15187131E+002
 -0.27434080E+000  0.43584639E+001  0.30042780E+001
 -0.31246966E+001 -0.10199382E+001  0.11314300E+003
 -0.19972363E+002 -0.48695768E+000  0.10134830E+003
 -0.33887710E+002 -0.52267490E+001  0.89132846E+002
 -0.45337982E+002 -0.87596197E+001  0.76719428E+002
 -0.51112027E+002 -0.10427306E+002  0.64405661E+002
 -0.51124386E+002 -0.10402005E+002  0.52123714E+002
 -0.45332299E+002 -0.86467188E+001  0.39817137E+002
 -0.33895327E+002 -0.48967773E+001  0.27404327E+002
 -0.20057578E+002 -0.40778013E+000  0.15187381E+002
 -0.25953675E-001  0.43764747E+001  0.30095263E+001
 -0.30010704E+001 -0.95032711E+000  0.11312480E+003
 -0.19821834E+002 -0.10332540E+000  0.10132960E+003
 -0.33819756E+002 -0.45787033E+001  0.89101740E+002
 -0.45375278E+002 -0.78945877E+001  0.76709221E+002
 -0.51202027E+002 -0.94504098E+001  0.64388695E+002
 -0.51211620E+002 -0.94229878E+001  0.52092202E+002
 -0.45366296E+002 -0.77798684E+001  0.39779821E+002
 -0.33828627E+002 -0.42527064E+001  0.27386492E+002
 -0.19897163E+002 -0.23014030E-001  0.15183292E+002
  0.22253890E+000  0.43930658E+001  0.30143616E+001
 -0.28748883E+001 -0.87974093E+000  0.11312551E+003
 -0.19661316E+002  0.27915670E+000  0.10131907E+003
 -0.33740135E+002 -0.39314627E+001  0.89073342E+002
 -0.45387465E+002 -0.70267259E+001  0.76696119E+002
 -0.51275315E+002 -0.84708618E+001  0.64374700E+002
 -0.51281600E+002 -0.84411533E+001  0.52061921E+002
 -0.45382651E+002 -0.69106609E+001  0.39744095E+002
 -0.33752140E+002 -0.36087132E+001  0.27365516E+002
 -0.19727205E+002  0.36030271E+000  0.15180318E+002
  0.47104537E+000  0.44079034E+001  0.30233526E+001
 -0.27460250E+001 -0.80853972E+000  0.11312833E+003
 -0.19493137E+002  0.66106604E+000  0.10128566E+003
 -0.33642983E+002 -0.32849992E+001  0.89041974E+002
 -0.45376034E+002 -0.61576626E+001  0.76680931E+002
 -0.51321001E+002 -0.74882353E+001  0.64359486E+002
 -0.51328872E+002 -0.74568959E+001  0.52032385E+002
 -0.45372291E+002 -0.60391754E+001  0.39715012E+002
 -0.33653980E+002 -0.29640448E+001  0.27354904E+002
 -0.19548052E+002  0.74265044E+000  0.15184439E+002
  0.71949426E+000  0.44218584E+001  0.30335231E+001
 -0.26141561E+001 -0.73634264E+000  0.11312892E+003
 -0.19314265E+002  0.10409135E+001  0.10126155E+003
 -0.33526578E+002 -0.26403363E+001  0.89005650E+002
 -0.45339848E+002 -0.52896460E+001  0.76665765E+002
 -0.51332828E+002 -0.65046890E+001  0.64342193E+002
 -0.51341758E+002 -0.64708552E+001  0.52008267E+002
 -0.45334033E+002 -0.51670875E+001  0.39693204E+002
 -0.33537389E+002 -0.23197801E+001  0.27349962E+002
 -0.19360590E+002  0.11240720E+001  0.15183875E+002
  0.96806823E+000  0.44333815E+001  0.30404747E+001
 -0.24787319E+001 -0.66321438E+000  0.11311225E+003
 -0.19124107E+002  0.14185367E+001  0.10123748E+003
 -0.33391880E+002 -0.19976315E+001  0.88966469E+002
 -0.45275409E+002 -0.44221321E+001  0.76646560E+002
 -0.51299019E+002 -0.55207609E+001  0.64323780E+002
 -0.51304095E+002 -0.54844153E+001  0.51989587E+002
 -0.45275694E+002 -0.42965950E+001  0.39670113E+002
 -0.33398685E+002 -0.16762886E+001  0.27356325E+002
 -0.19163830E+002  0.15038983E+001  0.15190430E+002
  0.12169199E+001  0.44432030E+001  0.30459458E+001
 -0.23397452E+001 -0.58774367E+000  0.11309325E+003
 -0.18925078E+002  0.17930424E+001  0.10118695E+003
 -0.33238659E+002 -0.13574634E+001  0.88924540E+002
 -0.45182621E+002 -0.35570845E+001  0.76622153E+002
 -0.51214016E+002 -0.45395626E+001  0.64302680E+002
 -0.51219738E+002 -0.45011407E+001  0.51977953E+002
 -0.45182518E+002 -0.34277027E+001  0.39661512E+002
 -0.33240645E+002 -0.10350800E+001  0.27368052E+002
 -0.18961842E+002  0.18816418E+001  0.15191717E+002
  0.14662207E+001  0.44514647E+001  0.30517402E+001
 -0.21973502E+001 -0.51133126E+000  0.11309489E+003
 -0.18736237E+002  0.21684879E+001  0.10115188E+003
 -0.33063471E+002 -0.72008826E+000  0.88876249E+002
 -0.45058947E+002 -0.26948914E+001  0.76591687E+002
 -0.51089366E+002 -0.35635246E+001  0.64281433E+002
 -0.51095432E+002 -0.35231099E+001  0.51970429E+002
 -0.45059004E+002 -0.25615639E+001  0.39662572E+002
 -0.33065926E+002 -0.39600706E+000  0.27386466E+002
 -0.18758002E+002  0.22579813E+001  0.15181381E+002
  0.17160875E+001  0.44584362E+001  0.30568796E+001
 -0.20508228E+001 -0.43392745E+000  0.11309545E+003
 -0.18522797E+002  0.25397927E+001  0.10107113E+003
 -0.32872686E+002 -0.85617164E-001  0.88827523E+002
 -0.44906764E+002 -0.18362195E+001  0.76557399E+002
 -0.50925111E+002 -0.25935683E+001  0.64258584E+002
 -0.50934556E+002 -0.25512680E+001  0.51969248E+002
 -0.44901565E+002 -0.16991162E+001  0.39677503E+002
 -0.32875094E+002  0.24052342E+000  0.27408869E+002
 -0.18535698E+002  0.26340670E+001  0.15190014E+002
  0.19665580E+001  0.44639809E+001  0.30621644E+001
 -0.18999610E+001 -0.35554731E+000  0.11309623E+003
 -0.18295799E+002  0.29109518E+001  0.10102214E+003
 -0.32668091E+002  0.54635662E+000  0.88781539E+002
 -0.44724505E+002 -0.98143398E+000  0.76516051E+002
 -0.50737707E+002 -0.16291562E+001  0.64236370E+002
 -0.50743096E+002 -0.15854004E+001  0.51973006E+002
 -0.44721209E+002 -0.84065909E+000  0.39698010E+002
 -0.32670072E+002  0.87454428E+000  0.27434099E+002
 -0.18306101E+002  0.30083080E+001  0.15199642E+002
  0.22179228E+001  0.44690901E+001  0.30659154E+001
 -0.17447213E+001 -0.27606330E+000  0.11309682E+003
 -0.18063554E+002  0.32817223E+001  0.10096884E+003
 -0.32451284E+002  0.11760166E+001  0.88739097E+002
 -0.44524799E+002 -0.12977559E+000  0.76476343E+002
 -0.50529982E+002 -0.66853742E+000  0.64216278E+002
 -0.50534633E+002 -0.62373090E+000  0.51979585E+002
 -0.44523791E+002  0.14218793E-001  0.39721238E+002
 -0.32452950E+002  0.15062058E+001  0.27460950E+002
 -0.18070410E+002  0.33815561E+001  0.15207810E+002
  0.24694239E+001  0.44729085E+001  0.30702318E+001
 -0.15847104E+001 -0.19596029E+000  0.11309638E+003
 -0.17823596E+002  0.36508521E+001  0.10091728E+003
 -0.32222963E+002  0.18034757E+001  0.88702041E+002
 -0.44307514E+002  0.71883673E+000  0.76440513E+002
 -0.50314819E+002  0.28995559E+000  0.64200895E+002
 -0.50318677E+002  0.33517311E+000  0.51986677E+002
 -0.44309351E+002  0.86551459E+000  0.39746219E+002
 -0.32225015E+002  0.21354723E+001  0.27486577E+002
 -0.17827099E+002  0.37525114E+001  0.15210764E+002
  0.27210151E+001  0.44756230E+001  0.30747522E+001
 -0.14196566E+001 -0.11546832E+000  0.11309496E+003
 -0.17577000E+002  0.40184569E+001  0.10086374E+003
 -0.31988055E+002  0.24294842E+001  0.88674691E+002
 -0.44080621E+002  0.15652562E+001  0.76413007E+002
 -0.50087733E+002  0.12462526E+001  0.64188818E+002
 -0.50091872E+002  0.12914934E+001  0.51995063E+002
 -0.44084514E+002  0.17136511E+001  0.39768512E+002
 -0.32004239E+002  0.27650738E+001  0.27491854E+002
 -0.17577639E+002  0.41217907E+001  0.15222847E+002
  0.29725359E+001  0.44772637E+001  0.30778682E+001
 -0.12504806E+001 -0.34900065E-001  0.11309300E+003
 -0.17323207E+002  0.43870686E+001  0.10083305E+003
 -0.31762339E+002  0.30577942E+001  0.88671981E+002
 -0.43846721E+002  0.24106782E+001  0.76393493E+002
 -0.49860704E+002  0.22022828E+001  0.64182266E+002
 -0.49863553E+002  0.22472145E+001  0.52001022E+002
 -0.43850313E+002  0.25596035E+001  0.39786208E+002
 -0.31765784E+002  0.33918211E+001  0.27502455E+002
 -0.17321463E+002  0.44894641E+001  0.15229899E+002
  0.32238776E+001  0.44776027E+001  0.30812473E+001
  
POLYGONS 180 900
      4      0      1     11     10
      4      1      2     12     11
      4      2      3     13     12
      4      3      4     14     13
      4      4      5     15     14
      4      5      6     16     15
      4      6      7     17     16
      4      7      8     18     17
      4      8      9     19     18
      4     10     11     21     20
      4     11     12     22     21
      4     12     13     23     22
      4     13     14     24     23
      4     14     15     25     24
      4     15     16     26     25
      4     16     17     27     26
      4     17     18     28     27
      4     18     19     29     28
      4     20     21     31     30
      4     21     22     32     31
      4     22     23     33     32
      4     23     24     34     33
      4     24     25     35     34
      4     25     26     36     35
      4     26     27     37     36
      4     27     28     38     37
      4     28     29     39     38
      4     30     31     41     40
      4     31     32     42     41
      4     32     33     43     42
      4     33     34     44     43
      4     34     35     45     44
      4     35     36     46     45
      4     36     37     47     46
      4     37     38     48     47
      4     38     39     49     48
      4     40     41     51     50
      4     41     42     52     51
      4     42     43     53     52
      4     43     44     54     53
      4     44     45     55     54
      4     45     46     56     55
      4     46     47     57     56
      4     47     48     58     57
      4     48     49     59     58
      4     50     51     61     60
      4     51     52     62     61
      4     52     53     63     62
      4     53     54     64     63
      4     54     55     65     64
      4     55     56     66     65
      4     56     57     67     66
      4     57     58     68     67
      4     58     59     69     68
      4     60     61     71     70
      4     61     62     72     71
      4     62     63     73     72
      4     63     64     74     73
      4     64     65     75     74
      4     65     66     76     75
      4     66     67     77     76
      4     67     68     78     77
      4     68     69     79     78
      4     70     71     81     80
      4     71     72     82     81
      4     72     73     83     82
      4     73     74     84     83
      4     74     75     85     84
      4     75     76     86     85
      4     76     77     87     86
      4     77     78     88     87
      4     78     79     89     88
      4     80     81     91     90
      4     81     82     92     91
      4     82     83     93     92
      4     83     84     94     93
      4     84     85     95     94
      4     85     86     96     95
      4     86     87     97     96
      4     87     88     98     97
      4     88     89     99     98
      4     90     91    101    100
      4     91     92    102    101
      4     92     93    103    102
      4     93     94    104    103
      4     94     95    105    104
      4     95     96    106    105
      4     96     97    107    106
      4     97     98    108    107
      4     98     99    109    108
      4    100    101    111    110
      4    101    102    112    111
      4    102    103    113    112
      4    103    104    114    113
      4    104    105    115    114
      4    105    106    116    115
      4    106    107    117    116
      4    107    108    118    117
      4    108    109    119    118
      4    110    111    121    120
      4    111    112    122    121
      4    112    113    123    122
      4    113    114    124    123
      4    114    115    125    124
      4    115    116    126    125
      4    116    117    127    126
      4    117    118    128    127
      4    118    119    129    128
      4    120    121    131    130
      4    121    122    132    131
      4    122    123    133    132
      4    123    124    134    133
      4    124    125    135    134
      4    125    126    136    135
      4    126    127    137    136
      4    127    128    138    137
      4    128    129    139    138
      4    130    131    141    140
      4    131    132    142    141
      4    132    133    143    142
      4    133    134    144    143
      4    134    135    145    144
      4    135    136    146    145
      4    136    137    147    146
      4    137    138    148    147
      4    138    139    149    148
      4    140    141    151    150
      4    141    142    152    151
      4    142    143    153    152
      4    143    144    154    153
      4    144    145    155    154
      4    145    146    156    155
      4    146    147    157    156
      4    147    148    158    157
      4    148    149    159    158
      4    150    151    161    160
      4    151    152    162    161
      4    152    153    163    162
      4    153    154    164    163
      4    154    155    165    164
      4    155    156    166    165
      4    156    157    167    166
      4    157    158    168    167
      4    158    159    169    168
      4    160    161    171    170
      4    161    162    172    171
      4    162    163    173    172
      4    163    164    174    173
      4    164    165    175    174
      4    165    166    176    175
      4    166    167    177    176
      4    167    168    178    177
      4    168    169    179    178
      4    170    171    181    180
      4    171    172    182    181
      4    172    173    183    182
      4    173    174    184    183
      4    174    175    185    184
      4    175    176    186    185
      4    176    177    187    186
      4    177    178    188    187
      4    178    179    189    188
      4    180    181    191    190
      4    181    182    192    191
      4    182    183    193    192
      4    183    184    194    193
      4    184    185    195    194
      4    185    186    196    195
      4    186    187    197    196
      4    187    188    198    197
      4    188    189    199    198
      4    190    191    201    200
      4    191    192    202    201
      4    192    193    203    202
      4    193    194    204    203
      4    194    195    205    204
      4    195    196    206    205
      4    196    197    207    206
      4    197    198    208    207
      4    198    199    209    208
  
CELL_DATA 180
SCALARS Gamma double
LOOKUP_TABLE default
 -0.40701336E+001
 -0.15525125E+003
 -0.14146484E+003
 -0.10373592E+003
 -0.79210455E+002
 -0.69108042E+002
 -0.86187788E+002
 -0.13148407E+003
 -0.54679659E+002
 -0.40701336E+001
 -0.15525125E+003
 -0.14146484E+003
 -0.10373592E+003
 -0.79210455E+002
 -0.69108042E+002
 -0.86187788E+002
 -0.13148407E+003
 -0.54679659E+002
 -0.41574479E+001
 -0.15631590E+003
 -0.14229916E+003
 -0.10564084E+003
 -0.82721816E+002
 -0.73363469E+002
 -0.90319691E+002
 -0.13386125E+003
 -0.56665889E+002
 -0.42547860E+001
 -0.15731063E+003
 -0.14299805E+003
 -0.10775207E+003
 -0.86500484E+002
 -0.77819245E+002
 -0.94564929E+002
 -0.13627156E+003
 -0.58695410E+002
 -0.43611406E+001
 -0.15822917E+003
 -0.14354461E+003
 -0.11008348E+003
 -0.90603113E+002
 -0.82493351E+002
 -0.98867509E+002
 -0.13870013E+003
 -0.60763481E+002
 -0.44759924E+001
 -0.15906434E+003
 -0.14393031E+003
 -0.11214943E+003
 -0.95053052E+002
 -0.87378484E+002
 -0.10317547E+003
 -0.14113658E+003
 -0.62870055E+002
 -0.45978567E+001
 -0.15980132E+003
 -0.14411729E+003
 -0.11440126E+003
 -0.99974593E+002
 -0.92543669E+002
 -0.10746903E+003
 -0.14353039E+003
 -0.65020927E+002
 -0.47285441E+001
 -0.16045162E+003
 -0.14419142E+003
 -0.11671544E+003
 -0.10500911E+003
 -0.97698906E+002
 -0.11170522E+003
 -0.14576098E+003
 -0.67200707E+002
 -0.48659957E+001
 -0.16100426E+003
 -0.14412127E+003
 -0.11908272E+003
 -0.11019902E+003
 -0.10289716E+003
 -0.11562099E+003
 -0.14786472E+003
 -0.69415513E+002
 -0.50095155E+001
 -0.16144714E+003
 -0.14392381E+003
 -0.12148782E+003
 -0.11515820E+003
 -0.10810995E+003
 -0.11885418E+003
 -0.14990370E+003
 -0.71660577E+002
 -0.51494908E+001
 -0.16153997E+003
 -0.14340084E+003
 -0.12383816E+003
 -0.11906972E+003
 -0.11311480E+003
 -0.12183001E+003
 -0.15165461E+003
 -0.73803696E+002
 -0.51346537E+001
 -0.15665929E+003
 -0.13846815E+003
 -0.12263195E+003
 -0.11920674E+003
 -0.11390880E+003
 -0.12094731E+003
 -0.14870566E+003
 -0.73654135E+002
 -0.46587266E+001
 -0.13835549E+003
 -0.12171970E+003
 -0.11050393E+003
 -0.10856606E+003
 -0.10380919E+003
 -0.10921629E+003
 -0.13273300E+003
 -0.66919081E+002
 -0.38266154E+001
 -0.11048758E+003
 -0.96801330E+002
 -0.90032760E+002
 -0.89688879E+002
 -0.85493586E+002
 -0.89374969E+002
 -0.10715760E+003
 -0.54436325E+002
 -0.28342566E+001
 -0.79388323E+002
 -0.69385444E+002
 -0.66057483E+002
 -0.66650169E+002
 -0.63428619E+002
 -0.65857825E+002
 -0.77955958E+002
 -0.39714610E+002
 -0.17915563E+001
 -0.48619196E+002
 -0.42402214E+002
 -0.41280658E+002
 -0.42145739E+002
 -0.40220134E+002
 -0.41313394E+002
 -0.48317845E+002
 -0.24714688E+002
 -0.81856091E+000
 -0.21541708E+002
 -0.18744617E+002
 -0.18631326E+002
 -0.19216129E+002
 -0.18418026E+002
 -0.18723285E+002
 -0.21655029E+002
 -0.11135103E+002
 -0.16983547E+000
 -0.43158211E+001
 -0.37588562E+001
 -0.38076947E+001
 -0.39630860E+001
 -0.38217750E+001
 -0.38456670E+001
 -0.43977668E+001
 -0.22764939E+001
 -0.20358333E-002
 -0.50129804E-001
 -0.43769850E-001
 -0.45116199E-001
 -0.47341231E-001
 -0.45934438E-001
 -0.45782683E-001
 -0.51804677E-001
 -0.27059359E-001
 -0.00000000E+000
 -0.00000000E+000
 -0.00000000E+000
 -0.00000000E+000
 -0.00000000E+000
 -0.00000000E+000
 -0.00000000E+000
 -0.00000000E+000
 -0.00000000E+000
POINT_DATA 210
VECTORS Uconv double
  0.00000000E+000  0.00000000E+000  0.00000000E+000
  0.00000000E+000  0.00000000E+000  0.00000000E+000
  0.00000000E+000  0.00000000E+000  0.00000000E+000
  0.00000000E+000  0.00000000E+000  0.00000000E+000
  0.00000000E+000  0.00000000E+000  0.00000000E+000
  0.00000000E+000  0.00000000E+000  0.00000000E+000
  0.00000000E+000  0.00000000E+000  0.00000000E+000
  0.00000000E+000  0.00000000E+000  0.00000000E+000
  0.00000000E+000  0.00000000E+000  0.00000000E+000
  0.00000000E+000  0.00000000E+000  0.00000000E+000
  0.00000000E+000  0.00000000E+000  0.00000000E+000
  0.00000000E+000  0.00000000E+000  0.00000000E+000
  0.00000000E+000  0.00000000E+000  0.00000000E+000
  0.00000000E+000  0.00000000E+000  0.00000000E+000
  0.00000000E+000  0.00000000E+000  0.00000000E+000
  0.00000000E+000  0.00000000E+000  0.00000000E+000
  0.00000000E+000  0.00000000E+000  0.00000000E+000
  0.00000000E+000  0.00000000E+000  0.00000000E+000
  0.00000000E+000  0.00000000E+000  0.00000000E+000
  0.00000000E+000  0.00000000E+000  0.00000000E+000
  0.17141262E+002 -0.22611054E+000  0.10694282E+000
  0.15802673E+002  0.51611061E+000  0.25885088E+001
  0.15212055E+002  0.19150546E+000  0.18632943E+001
  0.15544381E+002 -0.78785296E-002  0.99145889E+000
  0.15967515E+002  0.79254139E-002  0.27120640E+000
  0.16202785E+002  0.32815091E-001 -0.12454475E+000
  0.16050167E+002 -0.72123461E-003 -0.59249329E+000
  0.15645090E+002  0.93664055E-001 -0.15128311E+001
  0.15585356E+002  0.43329931E+000 -0.13432193E+001
  0.16986456E+002  0.16973739E+000 -0.28978622E-001
  0.17137153E+002 -0.22550726E+000  0.10923422E+000
  0.15847212E+002  0.49745024E+000  0.28755332E+001
  0.15144001E+002  0.21395521E+000  0.19314231E+001
  0.15368758E+002 -0.94867016E-002  0.10972943E+001
  0.15738862E+002 -0.12812276E-001  0.31882951E+000
  0.15950957E+002  0.46550816E-002 -0.17292973E+000
  0.15871935E+002 -0.12933986E-001 -0.70148299E+000
  0.15553374E+002  0.11221292E+000 -0.15586813E+001
  0.15619168E+002  0.43408087E+000 -0.12941711E+001
  0.16994833E+002  0.95477492E-001 -0.35767239E-001
  0.17132400E+002 -0.22357045E+000  0.10967621E+000
  0.15902798E+002  0.48434087E+000  0.28308803E+001
  0.15091807E+002  0.23611397E+000  0.19849926E+001
  0.15188981E+002 -0.80982066E-002  0.11914607E+001
  0.15453074E+002 -0.36286741E-001  0.37171659E+000
  0.15663593E+002 -0.25127465E-001 -0.22456583E+000
  0.15681607E+002 -0.21939441E-001 -0.81234733E+000
  0.15477211E+002  0.13035630E+000 -0.16358795E+001
  0.15663452E+002  0.42910882E+000 -0.12523669E+001
  0.16997623E+002  0.11628389E+000 -0.22376208E-001
  0.17128385E+002 -0.22262006E+000  0.10778681E+000
  0.15976703E+002  0.46347615E+000  0.28271932E+001
  0.15059762E+002  0.25651835E+000  0.20200133E+001
  0.15010463E+002 -0.24420685E-002  0.12948433E+001
  0.15135518E+002 -0.57372735E-001  0.42932789E+000
  0.15344692E+002 -0.50543635E-001 -0.28073012E+000
  0.15485799E+002 -0.28063512E-001 -0.93321034E+000
  0.15417758E+002  0.14902967E+000 -0.16976958E+001
  0.15722288E+002  0.41569181E+000 -0.12240148E+001
  0.17000566E+002  0.90317738E-001  0.15891282E-001
  0.17130327E+002 -0.22421620E+000  0.10878597E+000
  0.16045339E+002  0.44264324E+000  0.27865851E+001
  0.15052899E+002  0.27264932E+000  0.20119404E+001
  0.14843670E+002  0.75565986E-002  0.13901381E+001
  0.14804917E+002 -0.71332608E-001  0.48500011E+000
  0.15011004E+002 -0.69257755E-001 -0.33800477E+000
  0.15296994E+002 -0.27348623E-001 -0.10522897E+001
  0.15381055E+002  0.16694779E+000 -0.17390308E+001
  0.15788311E+002  0.39789935E+000 -0.11562013E+001
  0.17005549E+002  0.47132716E-001 -0.41949393E-002
  0.17125257E+002 -0.22463036E+000  0.98555381E-001
  0.16172029E+002  0.39668813E+000  0.27971056E+001
  0.15076916E+002  0.28391514E+000  0.19909687E+001
  0.14702875E+002  0.22190441E-001  0.14687556E+001
  0.14479258E+002 -0.75760070E-001  0.53958926E+000
  0.14726224E+002 -0.79830775E-001 -0.39695119E+000
  0.15125657E+002 -0.20696533E-001 -0.11620536E+001
  0.15372421E+002  0.18242739E+000 -0.17563819E+001
  0.15853042E+002  0.37749238E+000 -0.10776039E+001
  0.17007305E+002  0.25158789E-001  0.27370361E-001
  0.17118876E+002 -0.23696804E+000  0.78143329E-001
  0.16349116E+002  0.32847737E+000  0.28944186E+001
  0.15135020E+002  0.28693100E+000  0.19344340E+001
  0.14176759E+002 -0.22487775E-001  0.17601239E+001
  0.14239826E+002 -0.71172493E-001  0.58598683E+000
  0.14446692E+002 -0.76691033E-001 -0.44611192E+000
  0.14985504E+002 -0.87115860E-002 -0.12667781E+001
  0.15382425E+002  0.19585268E+000 -0.17014321E+001
  0.15924460E+002  0.35830540E+000 -0.10466528E+001
  0.17008508E+002  0.32636154E-002  0.59096103E-001
  0.17114569E+002 -0.24020619E+000  0.43413608E-001
  0.16392619E+002  0.30461542E+000  0.26829494E+001
  0.15225624E+002  0.28236656E+000  0.18344835E+001
  0.14217928E+002  0.13169841E-001  0.17274223E+001
  0.13616176E+002 -0.11876473E+000  0.81941899E+000
  0.13963020E+002 -0.10872240E+000 -0.48313930E+000
  0.14681632E+002 -0.27424170E-001 -0.14275854E+001
  0.15438909E+002  0.20290748E+000 -0.16447998E+001
  0.16025591E+002  0.30982339E+000 -0.10009975E+001
  0.17008900E+002 -0.15509627E-001  0.91522961E-001
  0.17106862E+002 -0.24840553E+000  0.17141177E+000
  0.16428724E+002  0.26546579E+000  0.15348840E+001
  0.15356003E+002  0.26530290E+000  0.17035225E+001
  0.14340498E+002  0.42423511E-001  0.16477570E+001
  0.13330868E+002 -0.11826843E+000  0.80008319E+000
  0.13688914E+002 -0.10950500E+000 -0.62978334E+000
  0.14725958E+002 -0.29675517E-004 -0.14109258E+001
  0.15530347E+002  0.19923400E+000 -0.15542550E+001
  0.16121132E+002  0.27452267E+000 -0.47013232E+000
  0.17004544E+002  0.27791890E-001  0.14475228E+000
  0.17092683E+002 -0.23819272E+000  0.17787435E+000
  0.16492326E+002  0.22288878E+000  0.13416905E+001
  0.15519827E+002  0.23374801E+000  0.15407261E+001
  0.14559001E+002  0.59563447E-001  0.15118874E+001
  0.13573245E+002 -0.57004295E-001  0.74080977E+000
  0.13870284E+002 -0.54657427E-001 -0.59871641E+000
  0.14862709E+002  0.17812810E-001 -0.13399887E+001
  0.15659467E+002  0.18349635E+000 -0.14563277E+001
  0.16185984E+002  0.24450961E+000 -0.53155094E+000
  0.17005128E+002 -0.75111441E-004  0.16612081E+000
  0.17082340E+002 -0.24868761E+000  0.18633770E+000
  0.16561732E+002  0.18012544E+000  0.11827155E+001
  0.15712350E+002  0.18829964E+000  0.13498349E+001
  0.14875718E+002  0.57428369E-001  0.13374795E+001
  0.13981851E+002 -0.18156982E-001  0.65017774E+000
  0.14217387E+002 -0.21412090E-001 -0.53887962E+000
  0.15097751E+002  0.26497106E-001 -0.12184331E+001
  0.15813180E+002  0.15513987E+000 -0.12989195E+001
  0.16262415E+002  0.20506854E+000 -0.52401195E+000
  0.17004961E+002 -0.23009485E-001  0.18729226E+000
  0.17094736E+002 -0.23912937E+000 -0.74896283E+000
  0.16615036E+002  0.11589384E+000  0.91427179E+000
  0.15926678E+002  0.12963377E+000  0.11398989E+001
  0.15280030E+002  0.30477434E-001  0.10873221E+001
  0.14560759E+002 -0.20151135E-001  0.53819474E+000
  0.14739780E+002 -0.22652735E-001 -0.44728077E+000
  0.15418287E+002  0.13344061E-001 -0.10302394E+001
  0.15992433E+002  0.11396629E+000 -0.11344720E+001
  0.16336607E+002  0.16806485E+000 -0.51656732E+000
  0.17002726E+002 -0.40065643E-001  0.25015771E+000
  0.17087625E+002 -0.24085924E+000 -0.76483806E+000
  0.16669662E+002  0.69042227E-001  0.65647405E+000
  0.16158378E+002  0.57009742E-001  0.93328463E+000
  0.15745259E+002 -0.23999073E-001  0.79846306E+000
  0.15273689E+002 -0.66981756E-001  0.39009509E+000
  0.15396989E+002 -0.65204362E-001 -0.31984143E+000
  0.15804316E+002 -0.23109458E-001 -0.79766129E+000
  0.16186437E+002  0.62152754E-001 -0.93691316E+000
  0.16398067E+002  0.14036551E+000 -0.39854046E+000
  0.17001301E+002 -0.59065187E-001  0.26783812E+000
  0.17084755E+002 -0.25140764E+000 -0.78255937E+000
  0.16451734E+002 -0.50668326E-001 -0.70853484E+000
  0.16391273E+002 -0.23741480E-001  0.69553841E+000
  0.16236990E+002 -0.10233148E+000  0.49039257E+000
  0.16044570E+002 -0.15710876E+000  0.22763191E+000
  0.16116638E+002 -0.14691524E+000 -0.18112716E+000
  0.16224486E+002 -0.84806771E-001 -0.53805623E+000
  0.16389187E+002  0.20023169E-002 -0.72835231E+000
  0.16473914E+002  0.10576759E+000 -0.47093220E+000
  0.16998986E+002 -0.74601918E-001  0.28763969E+000
  0.17078029E+002 -0.25542643E+000 -0.79727588E+000
  0.16610634E+002 -0.62091187E-001 -0.37275007E+000
  0.16622735E+002 -0.10782740E+000  0.45872463E+000
  0.16718215E+002 -0.19830712E+000  0.20328662E+000
  0.16785991E+002 -0.26737140E+000  0.65158758E-001
  0.16813874E+002 -0.25324262E+000 -0.37281616E-001
  0.16646426E+002 -0.16058431E+000 -0.27997750E+000
  0.16604061E+002 -0.66021203E-001 -0.54306767E+000
  0.16521118E+002  0.74485488E-001 -0.43018270E+000
  0.16996016E+002 -0.89118795E-001  0.30820263E+000
  0.17070634E+002 -0.25913613E+000 -0.81189757E+000
  0.16634971E+002 -0.82737653E-001 -0.53773938E+000
  0.16848040E+002 -0.19135703E+000  0.24463471E+000
  0.17148202E+002 -0.29445728E+000 -0.81773625E-001
  0.17420423E+002 -0.37829561E+000 -0.79229394E-001
  0.17413789E+002 -0.35903492E+000  0.10024802E+000