# vtk DataFile Version 2.0
BldPointCP.BldB
ASCII
 
DATASET POLYDATA
POINTS 9 double
  0.23363115E+001  0.11334077E+002  0.10624001E+003
  0.51579858E+001  0.27756232E+002  0.94466735E+002
  0.74608915E+001  0.40955754E+002  0.82381532E+002
  0.90175799E+001  0.49738340E+002  0.70126915E+002
  0.95212727E+001  0.52419612E+002  0.58078527E+002
  0.90362636E+001  0.49551341E+002  0.46053773E+002
  0.74575895E+001  0.40781774E+002  0.33761662E+002
  0.50697006E+001  0.27686949E+002  0.21570958E+002
  0.20656178E+001  0.11274287E+002  0.98385341E+001
  
POINT_DATA 9
SCALARS Gamma_LL double
LOOKUP_TABLE default
  0.10261995E+003
  0.45730310E+002
  0.20066723E+002
  0.14257527E+002
  0.30107402E+002
  0.26371055E+002
  0.19649476E+002
  0.26889161E+002
  0.32194464E+002
VECTORS Vind_CP double
 -0.61061098E-001 -0.12337015E+000 -0.42814398E+000
 -0.75776505E-001 -0.18487661E+000 -0.24142512E+000
 -0.54303471E-001 -0.12471320E+000 -0.72102425E-001
 -0.44537121E-001 -0.12889765E+000  0.21491090E-002
 -0.64092280E-001 -0.26717486E+000  0.27830661E-001
 -0.87840682E-001 -0.27442332E+000  0.87159910E-001
 -0.76290359E-001 -0.20274031E+000  0.12506450E+000
 -0.60614155E-001 -0.18559554E+000  0.17479118E+000
 -0.12398598E+000 -0.66374913E-001  0.97033734E-001
VECTORS Vtot_CP double
  0.34931649E+002 -0.43170616E+001  0.89275657E-001
  0.66056288E+002 -0.96439510E+001  0.55997723E+000
  0.91051036E+002 -0.14436696E+002  0.22997571E+000
  0.10756004E+003 -0.17434429E+002  0.10599786E-001
  0.11244884E+003 -0.17899366E+002  0.10053253E+000
  0.10691932E+003 -0.16597463E+002  0.16750245E+000
  0.90769687E+002 -0.13686635E+002  0.25396739E+000
  0.67041153E+002 -0.93796108E+001  0.27986607E+000
  0.37389864E+002 -0.37890015E+001  0.11505456E+000
VECTORS Vstr_CP double
 -0.17792711E+002  0.41936914E+001 -0.51741964E+000
 -0.48932064E+002  0.94590744E+001 -0.80140234E+000
 -0.73905339E+002  0.14311983E+002 -0.30207814E+000
 -0.90404577E+002  0.17305531E+002 -0.84506765E-002
 -0.95312932E+002  0.17632191E+002 -0.72701864E-001
 -0.89807157E+002  0.16323040E+002 -0.80342538E-001
 -0.73645977E+002  0.13483895E+002 -0.12890289E+000
 -0.49901767E+002  0.91940153E+001 -0.10507489E+000
 -0.20313850E+002  0.37226266E+001 -0.18020823E-001
VECTORS Vwnd_CP double
  0.17200000E+002  0.00000000E+000  0.00000000E+000
  0.17200000E+002  0.00000000E+000  0.00000000E+000
  0.17200000E+002  0.00000000E+000  0.00000000E+000
  0.17200000E+002  0.00000000E+000  0.00000000E+000
  0.17200000E+002  0.00000000E+000  0.00000000E+000
  0.17200000E+002  0.00000000E+000  0.00000000E+000
  0.17200000E+002  0.00000000E+000  0.00000000E+000
  0.17200000E+002  0.00000000E+000  0.00000000E+000
  0.17200000E+002  0.00000000E+000  0.00000000E+000
VECTORS Tangent double
  0.89562832E+000 -0.44479930E+000  0.18713340E-002
  0.98050607E+000 -0.19643222E+000 -0.47159032E-002
  0.98452827E+000 -0.17515174E+000 -0.50947071E-002
  0.98485802E+000 -0.17335013E+000 -0.21015883E-002
  0.98283738E+000 -0.18447355E+000 -0.43043295E-003
  0.98362190E+000 -0.18024343E+000 -0.51292490E-003
  0.98450590E+000 -0.17535126E+000 -0.27664545E-003
  0.98361496E+000 -0.18028204E+000  0.68739832E-004
  0.98327915E+000 -0.18198941E+000  0.64777933E-002
VECTORS Normal double
  0.23702673E+000  0.48081818E+000  0.84417546E+000
  0.12840469E+000  0.62240541E+000  0.77209050E+000
  0.12674794E+000  0.69177203E+000  0.71090535E+000
  0.15761834E+000  0.89030128E+000  0.42722369E+000
  0.18445801E+000  0.98277998E+000 -0.10897469E-001
  0.16212604E+000  0.88598828E+000 -0.43444207E+000
  0.12443544E+000  0.69974999E+000 -0.70346697E+000
  0.11524845E+000  0.62849978E+000 -0.76922417E+000
  0.98715435E-001  0.50278746E+000 -0.85875493E+000
VECTORS Orth double
  0.37638842E+000  0.75562389E+000 -0.53606370E+000
  0.14872824E+000  0.75764497E+000 -0.63549509E+000
  0.12099194E+000  0.70055216E+000 -0.70326924E+000
  0.72188234E-001  0.42108593E+000 -0.90414352E+000
 -0.24333156E-002 -0.10631043E-001 -0.99994053E+000
 -0.78759772E-001 -0.42724357E+000 -0.90069963E+000
 -0.12354740E+000 -0.69253295E+000 -0.71072790E+000
 -0.13863410E+000 -0.75662832E+000 -0.63897901E+000
 -0.15302735E+000 -0.84503528E+000 -0.51234559E+000
