# vtk DataFile Version 2.0
BldPointCP.BldB
ASCII
 
DATASET POLYDATA
POINTS 9 double
  0.55513943E+001  0.10027738E+002  0.10635479E+003
  0.13606812E+002  0.24579904E+002  0.94569329E+002
  0.20033647E+002  0.36189446E+002  0.82327076E+002
  0.24385709E+002  0.44051205E+002  0.70073506E+002
  0.25792783E+002  0.46593036E+002  0.58091577E+002
  0.24385658E+002  0.44051090E+002  0.46109626E+002
  0.20033532E+002  0.36189319E+002  0.33856016E+002
  0.13606679E+002  0.24579731E+002  0.21613622E+002
  0.55509933E+001  0.10027550E+002  0.98280424E+001
  
POINT_DATA 9
SCALARS Gamma_LL double
LOOKUP_TABLE default
  0.00000000E+000
  0.00000000E+000
  0.00000000E+000
  0.00000000E+000
  0.00000000E+000
  0.00000000E+000
  0.00000000E+000
  0.00000000E+000
  0.00000000E+000
VECTORS Vind_CP double
  0.00000000E+000  0.00000000E+000  0.00000000E+000
  0.00000000E+000  0.00000000E+000  0.00000000E+000
  0.00000000E+000  0.00000000E+000  0.00000000E+000
  0.00000000E+000  0.00000000E+000  0.00000000E+000
  0.00000000E+000  0.00000000E+000  0.00000000E+000
  0.00000000E+000  0.00000000E+000  0.00000000E+000
  0.00000000E+000  0.00000000E+000  0.00000000E+000
  0.00000000E+000  0.00000000E+000  0.00000000E+000
  0.00000000E+000  0.00000000E+000  0.00000000E+000
VECTORS Vtot_CP double
  0.35168955E+002 -0.10062904E+002  0.96461430E-001
  0.61354182E+002 -0.24793317E+002 -0.94934994E-002
  0.82146421E+002 -0.36599322E+002 -0.15843337E+000
  0.96261320E+002 -0.44496613E+002 -0.11129799E+000
  0.10083467E+003 -0.47035934E+002 -0.23962058E-001
  0.96275134E+002 -0.44483113E+002  0.64488801E-001
  0.82173514E+002 -0.36568969E+002  0.11727574E+000
  0.61382329E+002 -0.24752396E+002 -0.41626057E-002
  0.35254284E+002 -0.10028540E+002 -0.85412657E-001
VECTORS Vstr_CP double
 -0.17968955E+002  0.10062904E+002 -0.96461430E-001
 -0.44154182E+002  0.24793317E+002  0.94934994E-002
 -0.64946421E+002  0.36599322E+002  0.15843337E+000
 -0.79061320E+002  0.44496613E+002  0.11129799E+000
 -0.83634669E+002  0.47035934E+002  0.23962058E-001
 -0.79075134E+002  0.44483113E+002 -0.64488801E-001
 -0.64973514E+002  0.36568969E+002 -0.11727574E+000
 -0.44182329E+002  0.24752396E+002  0.41626057E-002
 -0.18054284E+002  0.10028540E+002  0.85412657E-001
VECTORS Vwnd_CP double
  0.17200000E+002 -0.00000000E+000  0.00000000E+000
  0.17200000E+002 -0.00000000E+000  0.00000000E+000
  0.17200000E+002 -0.00000000E+000  0.00000000E+000
  0.17200000E+002 -0.00000000E+000  0.00000000E+000
  0.17200000E+002 -0.00000000E+000  0.00000000E+000
  0.17200000E+002 -0.00000000E+000  0.00000000E+000
  0.17200000E+002 -0.00000000E+000  0.00000000E+000
  0.17200000E+002 -0.00000000E+000  0.00000000E+000
  0.17200000E+002 -0.00000000E+000  0.00000000E+000
VECTORS Tangent double
  0.71788341E+000 -0.69616335E+000  0.23357897E-004
  0.87486267E+000 -0.48437104E+000  0.37302944E-004
  0.87490038E+000 -0.48430293E+000  0.35632846E-004
  0.87490949E+000 -0.48428648E+000  0.14001773E-004
  0.87492491E+000 -0.48425860E+000 -0.87102829E-005
  0.87494724E+000 -0.48421826E+000 -0.33595307E-004
  0.87491496E+000 -0.48427659E+000 -0.15499123E-004
  0.87488924E+000 -0.48432304E+000  0.25415730E-005
  0.87489378E+000 -0.48431485E+000  0.32984716E-004
VECTORS Normal double
  0.36562526E+000  0.37706119E+000  0.85096594E+000
  0.31249515E+000  0.56448221E+000  0.76400695E+000
  0.34387205E+000  0.62126173E+000  0.70412064E+000
  0.43388669E+000  0.78387032E+000  0.44417301E+000
  0.48425860E+000  0.87492491E+000 -0.98206281E-005
  0.43381813E+000  0.78390869E+000 -0.44417226E+000
  0.34386515E+000  0.62126414E+000 -0.70412188E+000
  0.31249437E+000  0.56449105E+000 -0.76400073E+000
  0.24789774E+000  0.44775801E+000 -0.85910388E+000
VECTORS Orth double
  0.59242011E+000  0.61088579E+000 -0.52522088E+000
  0.37008390E+000  0.66838950E+000 -0.64520801E+000
  0.34102983E+000  0.61602316E+000 -0.71008036E+000
  0.21511796E+000  0.38860510E+000 -0.89594104E+000
 -0.12376567E-004 -0.43742828E-005 -0.10000000E+001
 -0.21510265E+000 -0.38861272E+000 -0.89594140E+000
 -0.34099937E+000 -0.61604144E+000 -0.71007914E+000
 -0.37002172E+000 -0.66841682E+000 -0.64521538E+000
 -0.41606200E+000 -0.75163282E+000 -0.51180125E+000
