# vtk DataFile Version 2.0
Sgmt
ASCII
 
DATASET POLYDATA
POINTS 450 double
  0.11630622E-001  0.19649167E-002  0.11318236E+003
 -0.20518019E+002 -0.11108809E+001  0.10095270E+003
 -0.34991555E+002 -0.18972646E+001  0.88711277E+002
 -0.47104345E+002 -0.25581382E+001  0.76462559E+002
 -0.53161787E+002 -0.28901921E+001  0.64219216E+002
 -0.53162039E+002 -0.28905514E+001  0.51977300E+002
 -0.47103531E+002 -0.25617958E+001  0.39734787E+002
 -0.34992004E+002 -0.18991286E+001  0.27483840E+002
 -0.20521232E+002 -0.11121371E+001  0.15241762E+002
  0.10680812E-003  0.22270773E-004  0.30000678E+001
 -0.44817476E+001 -0.24205670E+000  0.11318004E+003
 -0.20761624E+002  0.32946393E+001  0.10095422E+003
 -0.35167065E+002  0.11946254E+001  0.88714572E+002
 -0.47241053E+002 -0.10647791E+000  0.76463960E+002
 -0.53285326E+002 -0.63780147E+000  0.64219524E+002
 -0.53287345E+002 -0.59433219E+000  0.51976124E+002
 -0.47242269E+002  0.34790466E-001  0.39731848E+002
 -0.35175057E+002  0.15215955E+001  0.27483461E+002
 -0.20763394E+002  0.33813423E+001  0.15241748E+002
 -0.24339506E+000  0.44934293E+001  0.30000601E+001
 -0.43206537E+001 -0.16174797E+000  0.11318190E+003
 -0.20526519E+002  0.36688571E+001  0.10094575E+003
 -0.34965405E+002  0.18310269E+001  0.88704738E+002
 -0.47067765E+002  0.75089821E+000  0.76458730E+002
 -0.53123262E+002  0.33088660E+000  0.64215182E+002
 -0.53124396E+002  0.37472922E+000  0.51972030E+002
 -0.47068957E+002  0.89396820E+000  0.39728585E+002
 -0.34971424E+002  0.21587783E+001  0.27484351E+002
 -0.20527634E+002  0.37560914E+001  0.15242122E+002
  0.97401270E-002  0.44970828E+001  0.30000227E+001
 -0.41544223E+001 -0.80994513E-001  0.11318273E+003
 -0.20283903E+002  0.40413479E+001  0.10094144E+003
 -0.34751701E+002  0.24649256E+001  0.88699314E+002
 -0.46875737E+002  0.16046064E+001  0.76455983E+002
 -0.52939839E+002  0.12951849E+001  0.64213178E+002
 -0.52940455E+002  0.13390718E+001  0.51970446E+002
 -0.46877168E+002  0.17489713E+001  0.39727665E+002
 -0.34755955E+002  0.27933811E+001  0.27484935E+002
 -0.20284871E+002  0.41289638E+001  0.15242436E+002
  0.26290307E+000  0.44992713E+001  0.30000073E+001
 -0.39840005E+001 -0.63202621E-006  0.11318291E+003
 -0.20035201E+002  0.44122504E+001  0.10094036E+003
 -0.34528324E+002  0.30968689E+001  0.88697816E+002
 -0.46667145E+002  0.24554691E+001  0.76455271E+002
 -0.52736554E+002  0.22557757E+001  0.64212725E+002
 -0.52736554E+002  0.22996356E+001  0.51970179E+002
 -0.46667145E+002  0.26002916E+001  0.39727634E+002
 -0.34528325E+002  0.34256184E+001  0.27485088E+002
 -0.20035201E+002  0.45000000E+001  0.15242543E+002
  0.51599865E+000  0.44999993E+001  0.30000015E+001
  0.11630622E-001  0.19649167E-002  0.11318236E+003
  0.93001663E+001  0.18330898E+002  0.10092975E+003
  0.15864738E+002  0.31269561E+002  0.88704915E+002
  0.21361326E+002  0.42099908E+002  0.76463474E+002
  0.24105073E+002  0.47508173E+002  0.64215324E+002
  0.24103592E+002  0.47505742E+002  0.51968825E+002
  0.21359096E+002  0.42095639E+002  0.39721601E+002
  0.15862674E+002  0.31265503E+002  0.27478934E+002
  0.92989704E+001  0.18328189E+002  0.15249144E+002
  0.10680812E-003  0.22270773E-004  0.30000678E+001
  0.24704522E+001 -0.37668805E+001  0.11318296E+003
  0.13232179E+002  0.16329091E+002  0.10093018E+003
  0.18626974E+002  0.29869329E+002  0.88705743E+002
  0.23551793E+002  0.40990323E+002  0.76463786E+002
  0.26116792E+002  0.46487628E+002  0.64215406E+002
  0.26154575E+002  0.46465647E+002  0.51968528E+002
  0.23679070E+002  0.40921229E+002  0.39721026E+002
  0.18917694E+002  0.29715755E+002  0.27479078E+002
  0.13311382E+002  0.16290898E+002  0.15249242E+002
  0.40132610E+001 -0.20358025E+001  0.30033180E+001
  0.25662679E+001 -0.38122131E+001  0.11318291E+003
  0.13697325E+002  0.16089305E+002  0.10093652E+003
  0.19329682E+002  0.29518313E+002  0.88701662E+002
  0.24451821E+002  0.40546427E+002  0.76458949E+002
  0.27118154E+002  0.46001308E+002  0.64214225E+002
  0.27156659E+002  0.45980452E+002  0.51969392E+002
  0.24579506E+002  0.40477975E+002  0.39724683E+002
  0.19619084E+002  0.29362911E+002  0.27482451E+002
  0.13775406E+002  0.16048830E+002  0.15245774E+002
  0.41477963E+001 -0.21079521E+001  0.30014144E+001
  0.26649306E+001 -0.38556622E+001  0.11318291E+003
  0.14157513E+002  0.15843217E+002  0.10093965E+003
  0.20027125E+002  0.29161974E+002  0.88698735E+002
  0.25345554E+002  0.40093713E+002  0.76456092E+002
  0.28110409E+002  0.45500631E+002  0.64213124E+002
  0.28148799E+002  0.45479442E+002  0.51969990E+002
  0.25472327E+002  0.40023629E+002  0.39726956E+002
  0.20314532E+002  0.29002611E+002  0.27484504E+002
  0.14234434E+002  0.15800870E+002  0.15243304E+002
  0.42810523E+001 -0.21793867E+001  0.30003025E+001
  0.27659998E+001 -0.38971140E+001  0.11318291E+003
  0.14612721E+002  0.15591736E+002  0.10094036E+003
  0.20720129E+002  0.28800840E+002  0.88697816E+002
  0.26234071E+002  0.39634066E+002  0.76455271E+002
  0.29095837E+002  0.44990177E+002  0.64212725E+002
  0.29133820E+002  0.44968247E+002  0.51970180E+002
  0.26359491E+002  0.39561655E+002  0.39727635E+002
  0.21004834E+002  0.28636465E+002  0.27485089E+002
  0.14688714E+002  0.15547861E+002  0.15242544E+002
  0.44131139E+001 -0.22499999E+001  0.29999986E+001
  0.11630622E-001  0.19649167E-002  0.11318236E+003
  0.11224071E+002 -0.17218806E+002  0.10093178E+003
  0.19144066E+002 -0.29373188E+002  0.88703811E+002
  0.25778050E+002 -0.39546270E+002  0.76462987E+002
  0.29091077E+002 -0.44627449E+002  0.64215940E+002
  0.29090492E+002 -0.44626284E+002  0.51969641E+002
  0.25776823E+002 -0.39542332E+002  0.39724263E+002
  0.19143463E+002 -0.29367380E+002  0.27482153E+002
  0.11222778E+002 -0.17217136E+002  0.15248946E+002
  0.10680812E-003  0.22270773E-004  0.30000678E+001
 -0.20248772E+001 -0.40108440E+001  0.11318238E+003
  0.75288512E+001 -0.19629885E+002  0.10093332E+003
  0.16549335E+002 -0.31063740E+002  0.88704700E+002
  0.23720705E+002 -0.40886667E+002  0.76463184E+002
  0.27201939E+002 -0.45860203E+002  0.64216058E+002
  0.27164973E+002 -0.45883543E+002  0.51969215E+002
  0.23597939E+002 -0.40961479E+002  0.39723712E+002
  0.16273735E+002 -0.31238081E+002  0.27482163E+002
  0.74536088E+001 -0.19675460E+002  0.15248955E+002
 -0.37695456E+001 -0.24575600E+001  0.29968252E+001
 -0.19320297E+001 -0.39747477E+001  0.11318271E+003
  0.73439745E+001 -0.19760216E+002  0.10093770E+003
  0.16155409E+002 -0.31349569E+002  0.88701196E+002
  0.23145539E+002 -0.41298124E+002  0.76458698E+002
  0.26537237E+002 -0.46335762E+002  0.64214428E+002
  0.26500193E+002 -0.46359236E+002  0.51969630E+002
  0.23022428E+002 -0.41373738E+002  0.39725954E+002
  0.15876711E+002 -0.31521966E+002  0.27483722E+002
  0.72690691E+001 -0.19805769E+002  0.15245559E+002
 -0.36413608E+001 -0.23890952E+001  0.29986790E+001
 -0.18346755E+001 -0.39368247E+001  0.11318286E+003
  0.71579747E+001 -0.19884904E+002  0.10093988E+003
  0.15757288E+002 -0.31627029E+002  0.88698641E+002
  0.22565228E+002 -0.41698414E+002  0.76456033E+002
  0.25865424E+002 -0.46796441E+002  0.64213152E+002
  0.25827920E+002 -0.46819193E+002  0.51970026E+002
  0.22441104E+002 -0.41772907E+002  0.39727261E+002
  0.15475577E+002 -0.31796052E+002  0.27484771E+002
  0.70826896E+001 -0.19929906E+002  0.15243237E+002
 -0.35119110E+001 -0.23198756E+001  0.29997207E+001
 -0.17340005E+001 -0.38971146E+001  0.11318291E+003
  0.69704787E+001 -0.20003986E+002  0.10094036E+003
  0.15356194E+002 -0.31897708E+002  0.88697815E+002
  0.21981073E+002 -0.42089535E+002  0.76455270E+002
  0.25188718E+002 -0.47245953E+002  0.64212725E+002
  0.25150734E+002 -0.47267883E+002  0.51970180E+002
  0.21855653E+002 -0.42161947E+002  0.39727634E+002
  0.15071489E+002 -0.32062084E+002  0.27485089E+002
  0.68944854E+001 -0.20047861E+002  0.15242544E+002
 -0.33811157E+001 -0.22499996E+001  0.29999949E+001
 -0.99593461E-001 -0.53175162E-002  0.15120343E+002
 -0.24352122E+001 -0.13158121E+000  0.15120267E+002
 -0.47708076E+001 -0.25831508E+000  0.15120409E+002
 -0.71063913E+001 -0.38523341E+000  0.15120397E+002
 -0.94420312E+001 -0.51106134E+000  0.15121258E+002
 -0.11777641E+002 -0.63818187E+000  0.15121390E+002
 -0.14113229E+002 -0.76475015E+000  0.15121062E+002
 -0.16448809E+002 -0.89131834E+000  0.15120531E+002
 -0.18784389E+002 -0.10178734E+001  0.15119917E+002
 -0.21119966E+002 -0.11444044E+001  0.15119360E+002
 -0.34075292E+000  0.44882158E+001  0.15119569E+002
 -0.26763902E+001  0.43619511E+001  0.15119289E+002
 -0.50150378E+001  0.42350524E+001  0.15119586E+002
 -0.73527065E+001  0.41080203E+001  0.15120388E+002
 -0.96843928E+001  0.39824073E+001  0.15121317E+002
 -0.12019991E+002  0.38552875E+001  0.15121678E+002
 -0.14355562E+002  0.37287201E+001  0.15121439E+002
 -0.16691120E+002  0.36021531E+001  0.15120979E+002
 -0.19026671E+002  0.34755995E+001  0.15120418E+002
 -0.21362128E+002  0.33490751E+001  0.15119346E+002
 -0.88776756E-001  0.44935554E+001  0.15119931E+002
 -0.24264407E+001  0.44093452E+001  0.15119816E+002
 -0.47655518E+001  0.43248409E+001  0.15119956E+002
 -0.71039432E+001  0.42403041E+001  0.15120322E+002
 -0.94395799E+001  0.41563776E+001  0.15120748E+002
 -0.11777076E+002  0.40718458E+001  0.15120901E+002
 -0.14114545E+002  0.39875148E+001  0.15120761E+002
 -0.16452004E+002  0.39031823E+001  0.15120507E+002
 -0.18789461E+002  0.38188560E+001  0.15120206E+002
 -0.21126847E+002  0.37345437E+001  0.15119712E+002
  0.16329121E+000  0.44974793E+001  0.15120098E+002
 -0.21753913E+001  0.44553597E+001  0.15120072E+002
 -0.45144079E+001  0.44131740E+001  0.15120103E+002
 -0.68532072E+001  0.43709841E+001  0.15120187E+002
 -0.91913871E+001  0.43289220E+001  0.15120282E+002
 -0.11530000E+002  0.42867437E+001  0.15120316E+002
 -0.13868602E+002  0.42446023E+001  0.15120279E+002
 -0.16207200E+002  0.42024584E+001  0.15120211E+002
 -0.18545799E+002  0.41603150E+001  0.15120131E+002
 -0.20884373E+002  0.41181743E+001  0.15120018E+002
[...]
CELL_DATA 765
SCALARS Gamma double
LOOKUP_TABLE default
 -0.16983547E+000
  0.16983547E+000
 -0.43158211E+001
  0.41459856E+001
 -0.37588562E+001
 -0.55696483E+000
 -0.38076947E+001
  0.48838483E-001
 -0.39630860E+001
  0.15539132E+000
 -0.38217750E+001
 -0.14131106E+000
 -0.38456670E+001
  0.23892066E-001
 -0.43977668E+001
  0.55209979E+000
 -0.22764939E+001
 -0.21212729E+001
 -0.22764939E+001
  0.00000000E+000
  0.16983547E+000
  0.00000000E+000
  0.41459856E+001
  0.00000000E+000
 -0.55696483E+000
  0.00000000E+000
  0.48838483E-001
  0.00000000E+000
  0.15539132E+000
  0.00000000E+000
 -0.14131106E+000
  0.00000000E+000
  0.23892066E-001
  0.00000000E+000
  0.55209979E+000
  0.00000000E+000
 -0.21212729E+001
 -0.22764939E+001
  0.16779964E+000
  0.20358333E-002
  0.42656912E+001
  0.48093971E-001
  0.37150864E+001
 -0.63599538E-002
  0.37625785E+001
  0.13463489E-002
  0.39157448E+001
  0.22250323E-002
  0.37758405E+001
 -0.14067937E-002
  0.37998844E+001
 -0.15175484E-003
  0.43459621E+001
  0.60219938E-002
  0.22494345E+001
 -0.24745317E-001
 -0.27059359E-001
  0.20358333E-002
  0.00000000E+000
  0.00000000E+000
  0.50129804E-001
 -0.00000000E+000
  0.00000000E+000
  0.43769850E-001
 -0.00000000E+000
  0.00000000E+000
  0.45116199E-001
 -0.00000000E+000
  0.00000000E+000
  0.47341231E-001
 -0.00000000E+000
  0.00000000E+000
  0.45934438E-001
 -0.00000000E+000
  0.00000000E+000
  0.45782683E-001
 -0.00000000E+000
  0.00000000E+000
  0.51804677E-001
 -0.00000000E+000
  0.00000000E+000
  0.27059359E-001
 -0.00000000E+000
  0.00000000E+000
 -0.00000000E+000
  0.32256505E+001
 -0.32256505E+001
  0.18979344E+001
  0.13277161E+001
  0.12865983E+001
  0.61133605E+000
  0.15436262E+001
 -0.25702784E+000
  0.18072758E+001
 -0.26364967E+000
  0.16817938E+001
  0.12548201E+000
  0.15339126E+001
  0.14788120E+000
  0.20388992E+001
 -0.50498659E+000
  0.20787311E+001
 -0.39831881E-001
  0.20787311E+001
  0.00000000E+000
 -0.32256505E+001
  0.00000000E+000
  0.13277161E+001
  0.00000000E+000
  0.61133605E+000
  0.00000000E+000
 -0.25702784E+000
  0.00000000E+000
 -0.26364967E+000
  0.00000000E+000
  0.12548201E+000
  0.00000000E+000
  0.14788120E+000
  0.00000000E+000
 -0.50498659E+000
  0.00000000E+000
 -0.39831881E-001
  0.20787311E+001
 -0.31878192E+001
 -0.37831218E-001
 -0.18745597E+001
  0.14456477E-001
 -0.12697514E+001
  0.65277625E-002
 -0.15248765E+001
 -0.19027177E-002
 -0.17864326E+001
 -0.20935815E-002
 -0.16619089E+001
  0.95830135E-003
 -0.15148379E+001
  0.81028700E-003
 -0.20138719E+001
 -0.59526030E-002
 -0.20534908E+001
 -0.21301071E-003
  0.25240302E-001
 -0.37831218E-001
 -0.00000000E+000
 -0.00000000E+000
 -0.23374740E-001
 -0.00000000E+000
 -0.00000000E+000
 -0.16846978E-001
 -0.00000000E+000
 -0.00000000E+000
 -0.18749696E-001
 -0.00000000E+000
 -0.00000000E+000
 -0.20843277E-001
 -0.00000000E+000
 -0.00000000E+000
 -0.19884976E-001
 -0.00000000E+000
 -0.00000000E+000
 -0.19074689E-001
 -0.00000000E+000
 -0.00000000E+000
 -0.25027292E-001
 -0.00000000E+000
 -0.00000000E+000
 -0.25240302E-001
 -0.00000000E+000
 -0.00000000E+000
  0.00000000E+000
  0.10796506E+001
 -0.10796506E+001
  0.22864924E+001
 -0.12068418E+001
  0.17123151E+001
  0.57417728E+000
  0.19508177E+001
 -0.23850265E+000
  0.22107269E+001
 -0.25990912E+000
  0.21117534E+001
  0.98973503E-001
  0.20087758E+001
  0.10297754E+000
  0.24850141E+001
 -0.47623825E+000
  0.67029763E+000
  0.18147164E+001
  0.67029763E+000
  0.00000000E+000
 -0.10796506E+001
  0.00000000E+000
 -0.12068418E+001
  0.00000000E+000
  0.57417728E+000
  0.00000000E+000
 -0.23850265E+000
  0.00000000E+000
 -0.25990912E+000
  0.00000000E+000
  0.98973503E-001
  0.00000000E+000
  0.10297754E+000
  0.00000000E+000
 -0.47623825E+000
  0.00000000E+000
  0.18147164E+001
  0.67029763E+000
 -0.10674822E+001
 -0.12168383E-001
 -0.22601309E+001
 -0.14193089E-001
 -0.16920466E+001
  0.60929708E-002
 -0.19286953E+001
 -0.18539712E-002
 -0.21864031E+001
 -0.22012529E-002
 -0.20882739E+001
  0.84422521E-003
 -0.19858451E+001
  0.54879671E-003
 -0.24566168E+001
 -0.54665826E-002
 -0.66265053E+000
  0.20750192E-001
  0.76470951E-002
 -0.12168383E-001
 -0.00000000E+000
 -0.00000000E+000
 -0.26361473E-001
 -0.00000000E+000
 -0.00000000E+000
 -0.20268502E-001
 -0.00000000E+000
 -0.00000000E+000
 -0.22122473E-001
 -0.00000000E+000
 -0.00000000E+000
 -0.24323726E-001
 -0.00000000E+000
 -0.00000000E+000
 -0.23479501E-001
 -0.00000000E+000
 -0.00000000E+000
 -0.22930704E-001
 -0.00000000E+000
 -0.00000000E+000
 -0.28397287E-001
 -0.00000000E+000
 -0.00000000E+000
 -0.76470951E-002
 -0.00000000E+000
 -0.00000000E+000
  0.00000000E+000
  0.15885165E-001
 -0.15885165E-001
  0.35763694E-001
 -0.19878529E-001
  0.72565195E-003
  0.35038042E-001
 -0.80950233E-002
  0.88206752E-002
 -0.21160288E-001
  0.13065265E-001
 -0.28668078E-001
  0.75077901E-002
 -0.33981924E-001
  0.53138460E-002
 -0.38380443E-001
  0.43985183E-002
 -0.60113674E-001
  0.21733232E-001
 -0.60113674E-001
  0.00000000E+000
 -0.15885165E-001
  0.00000000E+000
 -0.19878529E-001
  0.00000000E+000
  0.35038042E-001
  0.00000000E+000
  0.88206752E-002
  0.00000000E+000
  0.13065265E-001
  0.00000000E+000
  0.75077901E-002
  0.00000000E+000
  0.53138460E-002
  0.00000000E+000
  0.43985183E-002
  0.00000000E+000
  0.21733232E-001
 -0.60113674E-001
 -0.15695824E-001
 -0.18934076E-003
 -0.35522716E-001
 -0.51637527E-004
 -0.78145232E-003
  0.29677866E-003
  0.79265796E-002
  0.11264327E-003
  0.20867785E-001
  0.12405976E-003
  0.28305413E-001
  0.70162431E-004
  0.33575191E-001
  0.44067848E-004
  0.37937774E-001
  0.35934829E-004
  0.59422186E-001
  0.24882016E-003
 -0.69148868E-003
 -0.18934076E-003
 -0.00000000E+000
 -0.00000000E+000
 -0.24097829E-003
 -0.00000000E+000
 -0.00000000E+000
  0.55800373E-004
  0.00000000E+000
  0.00000000E+000
  0.16844364E-003
 -0.00000000E+000
  0.00000000E+000
  0.29250341E-003
 -0.00000000E+000
  0.00000000E+000
  0.36266584E-003
 -0.00000000E+000
  0.00000000E+000
  0.40673368E-003
 -0.00000000E+000
  0.00000000E+000
  0.44266851E-003
 -0.00000000E+000
  0.00000000E+000
  0.69148868E-003
 -0.00000000E+000
  0.00000000E+000
 -0.00000000E+000
 -0.13906748E-001
  0.13906748E-001
 -0.18217031E-001
  0.43102834E-002
 -0.45220762E-001
  0.27003731E-001
 -0.64566641E-001
  0.19345879E-001
 -0.81457026E-001
  0.16890385E-001
 -0.88139615E-001
  0.66825889E-002
 -0.90186453E-001
  0.20468383E-002
 -0.81856223E-001
 -0.83302305E-002
 -0.77764804E-001
 -0.40914188E-002
 -0.77764804E-001
  0.00000000E+000
  0.13906748E-001
  0.00000000E+000
  0.43102834E-002
  0.00000000E+000
  0.27003731E-001
  0.00000000E+000
  0.19345879E-001
  0.00000000E+000
  0.16890385E-001
  0.00000000E+000
  0.66825889E-002
  0.00000000E+000
  0.20468383E-002
  0.00000000E+000
 -0.83302305E-002
  0.00000000E+000
 -0.40914188E-002
 -0.77764804E-001
  0.13843415E-001
  0.63332842E-004
  0.18160081E-001
 -0.63821958E-005
  0.44992030E-001
  0.17178095E-003
  0.64198178E-001
  0.13973104E-003
  0.80934843E-001
  0.15372039E-003
  0.87520845E-001
  0.96587215E-004
  0.89482047E-001
  0.85635798E-004
  0.81146095E-001
  0.57217056E-005
  0.76990012E-001
  0.64664345E-004
 -0.77479209E-003
  0.63332842E-004
 -0.00000000E+000
 -0.00000000E+000
  0.56950646E-004
 -0.00000000E+000
 -0.00000000E+000
  0.22873159E-003
 -0.00000000E+000
 -0.00000000E+000
  0.36846263E-003
 -0.00000000E+000
 -0.00000000E+000
  0.52218302E-003
 -0.00000000E+000
 -0.00000000E+000
  0.61877024E-003
 -0.00000000E+000
 -0.00000000E+000
  0.70440604E-003
  0.00000000E+000
  0.00000000E+000
  0.71012774E-003
 -0.00000000E+000
  0.00000000E+000
  0.77479209E-003
 -0.00000000E+000
  0.00000000E+000
 -0.00000000E+000
  0.15960625E+000
 -0.15960625E+000
  0.39153958E+000
 -0.23193333E+000
  0.23893319E+000
  0.15260639E+000
 -0.70722852E-001
  0.30965604E+000
 -0.70015883E-001
 -0.70696891E-003
 -0.95116908E-001
  0.25101024E-001
 -0.10043516E+000
  0.53182568E-002
 -0.90338063E-001
 -0.10097102E-001
 -0.75349489E-001
 -0.14988574E-001
 -0.75349489E-001
  0.00000000E+000
 -0.15960625E+000
  0.00000000E+000
 -0.23193333E+000
  0.00000000E+000
  0.15260639E+000
  0.00000000E+000
  0.30965604E+000
  0.00000000E+000
 -0.70696891E-003
  0.00000000E+000
  0.25101024E-001
  0.00000000E+000
  0.53182568E-002
  0.00000000E+000
 -0.10097102E-001
  0.00000000E+000
 -0.14988574E-001
 -0.75349489E-001
 -0.15857867E+000
 -0.10275771E-002
 -0.38833566E+000
 -0.21763449E-002
 -0.23639612E+000
  0.66684911E-003
  0.70133890E-001
  0.31260352E-002
  0.69548593E-001
 -0.12167225E-003
  0.94369440E-001
  0.28017772E-003
  0.99590135E-001
  0.97561563E-004
  0.89527236E-001
 -0.34201940E-004
  0.74622044E-001
 -0.83382695E-004
 -0.72744468E-003
 -0.10275771E-002
 -0.00000000E+000
 -0.00000000E+000
 -0.32039221E-002
 -0.00000000E+000
 -0.00000000E+000
 -0.25370730E-002
 -0.00000000E+000
 -0.00000000E+000
  0.58896227E-003
  0.00000000E+000
  0.00000000E+000
  0.46729003E-003
 -0.00000000E+000
  0.00000000E+000
  0.74746775E-003
 -0.00000000E+000
  0.00000000E+000
  0.84502932E-003
 -0.00000000E+000
  0.00000000E+000
  0.81082738E-003
 -0.00000000E+000
  0.00000000E+000
  0.72744468E-003
 -0.00000000E+000
  0.00000000E+000
 -0.00000000E+000
 -0.91777741E-001
  0.91777741E-001
 -0.50551096E-001
 -0.41226645E-001
 -0.10067528E+000
  0.50124186E-001
 -0.12729314E+000
  0.26617857E-001
 -0.15622252E+000
  0.28929383E-001
 -0.19101726E+000
  0.34794740E-001
 -0.22088083E+000
  0.29863566E-001
 -0.22898290E+000
  0.81020706E-002
 -0.25548248E+000
  0.26499582E-001
 -0.25548248E+000
  0.00000000E+000
  0.91777741E-001
  0.00000000E+000
 -0.41226645E-001
  0.00000000E+000
  0.50124186E-001
  0.00000000E+000
  0.26617857E-001
  0.00000000E+000
  0.28929383E-001
  0.00000000E+000
  0.34794740E-001
  0.00000000E+000
  0.29863566E-001
  0.00000000E+000
  0.81020706E-002
  0.00000000E+000
  0.26499582E-001
 -0.25548248E+000
  0.90766224E-001
  0.10115168E-002
  0.50283900E-001
 -0.74432121E-003
  0.99817298E-001
  0.59078817E-003
  0.12629913E+000
  0.13602636E-003
  0.15504503E+000
  0.18348249E-003
  0.18965818E+000
  0.18158900E-003
  0.21936837E+000
  0.15338020E-003
  0.22746245E+000
  0.79856616E-005
  0.25397006E+000
 -0.80285949E-005
 -0.15124189E-002
  0.10115168E-002
  0.00000000E+000
  0.00000000E+000
  0.26719562E-003
 -0.00000000E+000
  0.00000000E+000
  0.85798379E-003
 -0.00000000E+000
  0.00000000E+000
  0.99401015E-003
 -0.00000000E+000
  0.00000000E+000
  0.11774926E-002
 -0.00000000E+000
  0.00000000E+000
  0.13590817E-002
 -0.00000000E+000
  0.00000000E+000
  0.15124619E-002
 -0.00000000E+000
  0.00000000E+000
  0.15204475E-002
 -0.00000000E+000
  0.00000000E+000
  0.15124189E-002
 -0.00000000E+000
  0.00000000E+000
 -0.00000000E+000
 -0.58538243E-001
  0.58538243E-001
 -0.49140782E-001
 -0.93974613E-002
 -0.28763721E-001
 -0.20377061E-001
 -0.50609174E-002
 -0.23702803E-001
  0.27189229E-001
 -0.32250146E-001
  0.59977616E-001
 -0.32788387E-001
  0.94107057E-001
 -0.34129441E-001
  0.11496642E+000
 -0.20859365E-001
  0.15730711E+000
 -0.42340690E-001
  0.15730711E+000
  0.00000000E+000
  0.58538243E-001
  0.00000000E+000
 -0.93974613E-002
  0.00000000E+000
 -0.20377061E-001
  0.00000000E+000
 -0.23702803E-001
  0.00000000E+000
 -0.32250146E-001
  0.00000000E+000
 -0.32788387E-001
  0.00000000E+000
 -0.34129441E-001
  0.00000000E+000
 -0.20859365E-001
  0.00000000E+000
 -0.42340690E-001
  0.15730711E+000
  0.57766318E-001
  0.77192537E-003
  0.48388134E-001
 -0.19277702E-004
  0.28034192E-001
 -0.23118700E-004
  0.44529298E-002
 -0.12154133E-003
 -0.27553822E-001
 -0.24339420E-003
 -0.60056554E-001
 -0.28565522E-003
 -0.93844979E-001
 -0.34101608E-003
 -0.11442138E+000
 -0.28296809E-003
 -0.15634496E+000
 -0.41710465E-003
  0.96215060E-003
  0.77192537E-003
  0.00000000E+000
  0.00000000E+000
  0.75264767E-003
 -0.00000000E+000
  0.00000000E+000
  0.72952897E-003
 -0.00000000E+000
  0.00000000E+000
  0.60798763E-003
 -0.00000000E+000
  0.00000000E+000
  0.36459343E-003
 -0.00000000E+000
  0.00000000E+000
  0.78938216E-004
 -0.00000000E+000
  0.00000000E+000
 -0.26207786E-003
 -0.00000000E+000
  0.00000000E+000
 -0.54504595E-003
 -0.00000000E+000
  0.00000000E+000
 -0.96215060E-003
 -0.00000000E+000
  0.00000000E+000
 -0.00000000E+000
  0.22427435E+000
 -0.22427435E+000
  0.24701937E+000
 -0.22745021E-001
  0.63847560E-001
  0.18317181E+000
  0.17019488E-001
  0.46828072E-001
  0.37985722E-001
 -0.20966235E-001
  0.63307383E-001
 -0.25321661E-001
  0.89917639E-001
 -0.26610256E-001
  0.10363723E+000
 -0.13719593E-001
  0.12639678E+000
 -0.22759551E-001
  0.12639678E+000
  0.00000000E+000
 -0.22427435E+000
  0.00000000E+000
 -0.22745021E-001
  0.00000000E+000
  0.18317181E+000
  0.00000000E+000
  0.46828072E-001
  0.00000000E+000
 -0.20966235E-001
  0.00000000E+000
 -0.25321661E-001
  0.00000000E+000
 -0.26610256E-001
  0.00000000E+000
 -0.13719593E-001
  0.00000000E+000
 -0.22759551E-001
  0.12639678E+000
 -0.22082331E+000
 -0.34510427E-002
 -0.24244710E+000
 -0.11212316E-002
 -0.61478931E-001
  0.22036456E-002
 -0.17323617E-001
  0.26727576E-002
 -0.37931311E-001
 -0.35854081E-003
 -0.63160081E-001
 -0.92890887E-004
 -0.89513516E-001
 -0.25682024E-003
 -0.10306062E+000
 -0.17248752E-003
 -0.12561490E+000
 -0.20527117E-003
  0.78188161E-003
 -0.34510427E-002
 -0.00000000E+000
 -0.00000000E+000
 -0.45722743E-002
 -0.00000000E+000
 -0.00000000E+000
 -0.23686286E-002
 -0.00000000E+000
 -0.00000000E+000
  0.30412901E-003
  0.00000000E+000
  0.00000000E+000
 -0.54411804E-004
 -0.00000000E+000
  0.00000000E+000
 -0.14730269E-003
 -0.00000000E+000
  0.00000000E+000
 -0.40412293E-003
 -0.00000000E+000
  0.00000000E+000
 -0.57661044E-003
 -0.00000000E+000
  0.00000000E+000
 -0.78188161E-003
 -0.00000000E+000
  0.00000000E+000
 -0.00000000E+000
SCALARS Epsilon double
LOOKUP_TABLE default
  0.23921366E+002
  0.23921366E+002
  0.18971836E+002
  0.21446601E+002
  0.17240385E+002
  0.18106111E+002
  0.13664467E+002
  0.15452426E+002
  0.12242545E+002
  0.12953506E+002
  0.13664467E+002
  0.12953506E+002
  0.17240385E+002
  0.15452426E+002
  0.18971836E+002
  0.18106111E+002
  0.23921366E+002
  0.21446601E+002
  0.23921366E+002
  0.23921366E+002
  0.23921366E+002
  0.18971836E+002
  0.21446601E+002
  0.17240385E+002
  0.18106111E+002
  0.13664467E+002
  0.15452426E+002
  0.12242545E+002
  0.12953506E+002
  0.13664467E+002
  0.12953506E+002
  0.17240385E+002
  0.15452426E+002
  0.18971836E+002
  0.18106111E+002
  0.23921366E+002
  0.21446601E+002
  0.23921366E+002
  0.23921366E+002
  0.23921366E+002
  0.18971836E+002
  0.21446601E+002
  0.17240385E+002
  0.18106111E+002
  0.13664467E+002
  0.15452426E+002
  0.12242545E+002
  0.12953506E+002
  0.13664467E+002
  0.12953506E+002
  0.17240385E+002
  0.15452426E+002
  0.18971836E+002
  0.18106111E+002
  0.23921366E+002
  0.21446601E+002
  0.23921366E+002
  0.23921381E+002
  0.23921396E+002
  0.23921396E+002
  0.18971855E+002
  0.21446636E+002
  0.18971875E+002
  0.17240406E+002
  0.18106151E+002
  0.17240428E+002
  0.13664494E+002
  0.15452474E+002
  0.13664521E+002
  0.12242576E+002
  0.12953563E+002
  0.12242606E+002
  0.13664494E+002
  0.12953563E+002
  0.13664521E+002
  0.17240406E+002
  0.15452474E+002
  0.17240428E+002
  0.18971855E+002
  0.18106151E+002
  0.18971875E+002
  0.23921381E+002
  0.21446636E+002
  0.23921396E+002
  0.23921396E+002
  0.23921366E+002
  0.23921366E+002
  0.18971836E+002
  0.21446601E+002
  0.17240385E+002
  0.18106111E+002
  0.13664467E+002
  0.15452426E+002
  0.12242545E+002
  0.12953506E+002
  0.13664467E+002
  0.12953506E+002
  0.17240385E+002
  0.15452426E+002
  0.18971836E+002
  0.18106111E+002
  0.23921366E+002
  0.21446601E+002
  0.23921366E+002
  0.23921366E+002
  0.23921366E+002
  0.18971836E+002
  0.21446601E+002
  0.17240385E+002
  0.18106111E+002
  0.13664467E+002
  0.15452426E+002
  0.12242545E+002
  0.12953506E+002
  0.13664467E+002
  0.12953506E+002
  0.17240385E+002
  0.15452426E+002
  0.18971836E+002
  0.18106111E+002
  0.23921366E+002
  0.21446601E+002
  0.23921366E+002
  0.23921366E+002
  0.23921366E+002
  0.18971836E+002
  0.21446601E+002
  0.17240385E+002
  0.18106111E+002
  0.13664467E+002
  0.15452426E+002
  0.12242545E+002
  0.12953506E+002
  0.13664467E+002
  0.12953506E+002
  0.17240385E+002
  0.15452426E+002
  0.18971836E+002
  0.18106111E+002
  0.23921366E+002
  0.21446601E+002
  0.23921366E+002
  0.23921381E+002
  0.23921396E+002
  0.23921396E+002
  0.18971855E+002
  0.21446636E+002
  0.18971875E+002
  0.17240406E+002
  0.18106151E+002
  0.17240428E+002
  0.13664494E+002
  0.15452474E+002
  0.13664521E+002
  0.12242576E+002
  0.12953563E+002
  0.12242606E+002
  0.13664494E+002
  0.12953563E+002
  0.13664521E+002
  0.17240406E+002
  0.15452474E+002
  0.17240428E+002
  0.18971855E+002
  0.18106151E+002
  0.18971875E+002
  0.23921381E+002
  0.21446636E+002
  0.23921396E+002
  0.23921396E+002
  0.23921366E+002
  0.23921366E+002
  0.18971836E+002
  0.21446601E+002
  0.17240385E+002
  0.18106111E+002
  0.13664467E+002
  0.15452426E+002
  0.12242545E+002
  0.12953506E+002
  0.13664467E+002
  0.12953506E+002
  0.17240385E+002
  0.15452426E+002
  0.18971836E+002
  0.18106111E+002
  0.23921366E+002
  0.21446601E+002
  0.23921366E+002
  0.23921366E+002
  0.23921366E+002
  0.18971836E+002
  0.21446601E+002
  0.17240385E+002
  0.18106111E+002
  0.13664467E+002
  0.15452426E+002
  0.12242545E+002
  0.12953506E+002
  0.13664467E+002
  0.12953506E+002
  0.17240385E+002
  0.15452426E+002
  0.18971836E+002
  0.18106111E+002
  0.23921366E+002
  0.21446601E+002
  0.23921366E+002
  0.23921366E+002
  0.23921366E+002
  0.18971836E+002
  0.21446601E+002
  0.17240385E+002
  0.18106111E+002
  0.13664467E+002
  0.15452426E+002
  0.12242545E+002
  0.12953506E+002
  0.13664467E+002
  0.12953506E+002
  0.17240385E+002
  0.15452426E+002
  0.18971836E+002
  0.18106111E+002
  0.23921366E+002
  0.21446601E+002
  0.23921366E+002
  0.23921381E+002
  0.23921396E+002
  0.23921396E+002
  0.18971855E+002
  0.21446636E+002
  0.18971875E+002
  0.17240406E+002
  0.18106151E+002
  0.17240428E+002
  0.13664494E+002
  0.15452474E+002
  0.13664521E+002
  0.12242576E+002
  0.12953563E+002
  0.12242606E+002
  0.13664494E+002
  0.12953563E+002
  0.13664521E+002
  0.17240406E+002
  0.15452474E+002
  0.17240428E+002
  0.18971855E+002
  0.18106151E+002
  0.18971875E+002
  0.23921381E+002
  0.21446636E+002
  0.23921396E+002
  0.23921396E+002
  0.23389775E+001
  0.23389775E+001
  0.23389775E+001
  0.23389775E+001
  0.23389775E+001
  0.23389775E+001
  0.23389775E+001
  0.23389775E+001
  0.23389775E+001
  0.23389775E+001
  0.23389775E+001
  0.23389775E+001
  0.23389775E+001
  0.23389775E+001
  0.23389775E+001
  0.23389775E+001
  0.23389775E+001
  0.23389775E+001
  0.23389775E+001
  0.23389775E+001
  0.23389775E+001
  0.23389775E+001
  0.23389775E+001
  0.23389775E+001
  0.23389775E+001
  0.23389775E+001
  0.23389775E+001
  0.23389775E+001
  0.23389775E+001
  0.23389775E+001
  0.23389775E+001
  0.23389775E+001
  0.23389775E+001
  0.23389775E+001
  0.23389775E+001
  0.23389775E+001
  0.23389775E+001
  0.23389775E+001
  0.23389775E+001
  0.23389775E+001
  0.23389775E+001
  0.23389775E+001
  0.23389775E+001
  0.23389775E+001
  0.23389775E+001
  0.23389775E+001
  0.23389775E+001
  0.23389775E+001
  0.23389775E+001
  0.23389775E+001
  0.23389775E+001
  0.23389775E+001
  0.23389775E+001
  0.23389775E+001
  0.23389775E+001
  0.23389775E+001
  0.23389775E+001
  0.23391348E+001
  0.23392921E+001
  0.23392921E+001
  0.23391348E+001
  0.23392921E+001
  0.23392921E+001
  0.23391348E+001
  0.23392921E+001
  0.23392921E+001
  0.23391348E+001
  0.23392921E+001
  0.23392921E+001
  0.23391348E+001
  0.23392921E+001
  0.23392921E+001
  0.23391348E+001
  0.23392921E+001
  0.23392921E+001
  0.23391348E+001
  0.23392921E+001
  0.23392921E+001
  0.23391348E+001
  0.23392921E+001
  0.23392921E+001
  0.23391348E+001
  0.23392921E+001
  0.23392921E+001
  0.23392921E+001