<?xml version="1.0"?>
<VTKFile type="PolyData" version="0.1" byte_order="LittleEndian">
  <PolyData>
    <Piece NumberOfPoints="     10" NumberOfVerts="  0" NumberOfLines="      9"
           NumberOfStrips="  0" NumberOfPolys="      0">
      <Points>
        <DataArray type="Float32" NumberOfComponents="3" format="ascii">
                       0.38301                       0.08629                     113.18046
                       4.20501                      20.17608                     100.74528
                       6.97492                      34.55201                      88.69617
                       9.32613                      46.56799                      76.56802
                      10.46588                      52.29994                      64.21221
                      10.47922                      52.17004                      51.94617
                       9.33685                      46.34269                      39.63850
                       6.95036                      34.45142                      27.38746
                       4.06733                      20.14579                      15.26230
                       0.00016                       0.00002                       3.00020
        </DataArray>
      </Points>
      <PointData>
        <DataArray type="Float32" Name="TranslationalVelocity" NumberOfComponents="3" format="ascii">
                       3.40670                       0.85618                      -0.01499
                     -34.58692                       7.48006                      -1.00303
                     -61.86692                      13.18141                      -0.64234
                     -84.42251                      18.24618                       0.15495
                     -95.19005                      19.67463                      -0.08656
                     -94.72747                      18.89161                      -0.09741
                     -83.75705                      16.86429                      -0.18754
                     -62.07317                      12.72280                      -0.26658
                     -36.29565                       7.33114                      -0.03032
                      -0.00013                      -0.00043                       0.00015
        </DataArray>
        <DataArray type="Float32" Name="RotationalVelocity" NumberOfComponents="3" format="ascii">
                      -0.00360                       0.09548                       1.81629
                      -0.00124                       0.13460                       1.80446
                       0.08673                       0.06540                       1.83584
                      -0.00724                      -0.01301                       1.90582
                      -0.08859                      -0.01666                       1.90344
                      -0.02365                      -0.03263                       1.82181
                       0.02244                      -0.04404                       1.78815
                      -0.01908                      -0.00937                       1.79478
                      -0.00635                      -0.00009                       1.80084
                       0.02309                       0.00792                       1.80182
        </DataArray>
        <DataArray type="Float32" Name="TranslationalAcceleration" NumberOfComponents="3" format="ascii">
                       8.04998                     -10.77886                      -0.30604
                       6.93506                      -4.20561                       8.46642
                       0.85240                     -18.54337                      -5.97711
                      -3.09292                     -14.29014                      -9.42776
                      -1.59580                       4.87901                       0.61020
                      -1.45439                       8.99731                       2.34322
                      -2.87003                      -2.88136                       9.26720
                      -2.72448                      -8.88622                       9.27681
                       0.07295                       1.66485                      -0.02668
                       0.01746                       0.00202                      -0.03869
        </DataArray>
        <DataArray type="Float32" Name="OrientationX" NumberOfComponents="3" format="ascii">
                       0.66429                       0.74735                      -0.01352
                       0.22296                       0.97481                       0.00590
                       0.19876                       0.98005                      -0.00108
                       0.18407                       0.98288                      -0.00799
                       0.19868                       0.98006                       0.00228
                       0.20576                       0.97856                       0.00874
                       0.19127                       0.98154                      -0.00095
                       0.19461                       0.98088                      -0.00130
                       0.20057                       0.97968                       0.00106
                       0.19855                       0.98005                       0.00844
        </DataArray>
        <DataArray type="Float32" Name="OrientationY" NumberOfComponents="3" format="ascii">
                       0.74746                      -0.66427                       0.00653
                       0.97483                      -0.22295                      -0.00332
                       0.98003                      -0.19876                      -0.00561
                       0.98290                      -0.18410                      -0.00308
                       0.98006                      -0.19868                      -0.00039
                       0.97860                      -0.20576                      -0.00035
                       0.98154                      -0.19128                      -0.00057
                       0.98088                      -0.19461                      -0.00001
                       0.97968                      -0.20057                       0.00013
                       0.98000                      -0.19864                       0.01211
        </DataArray>
        <DataArray type="Float32" Name="OrientationZ" NumberOfComponents="3" format="ascii">
                      -0.00410                      -0.01445                      -0.99989
                      -0.00192                       0.00649                      -0.99998
                      -0.00571                       0.00005                      -0.99998
                      -0.00449                      -0.00728                      -0.99996
                       0.00007                       0.00231                      -1.00000
                       0.00146                       0.00862                      -0.99996
                      -0.00074                      -0.00082                      -1.00000
                      -0.00026                      -0.00127                      -1.00000
                       0.00034                       0.00101                      -1.00000
                       0.01355                       0.00586                      -0.99989
        </DataArray>
      </PointData>
      <Lines>
        <DataArray type="Int32" Name="connectivity" format="ascii">
      0      1
      1      2
      2      3
      3      4
      4      5
      5      6
      6      7
      7      8
      8      9
        </DataArray>
        <DataArray type="Int32" Name="offsets" format="ascii">
      2
      4
      6
      8
     10
     12
     14
     16
     18
        </DataArray>
      </Lines>
    </Piece>
  </PolyData>
</VTKFile>
