# vtk DataFile Version 2.0
BldPointCP.BldC
ASCII
 
DATASET POLYDATA
POINTS 9 double
  0.69757925E+001 -0.91215568E+001  0.10632919E+003
  0.17022468E+002 -0.22399859E+002  0.94556498E+002
  0.25068643E+002 -0.32998931E+002  0.82354712E+002
  0.30504700E+002 -0.40136878E+002  0.70095927E+002
  0.32249354E+002 -0.42418637E+002  0.58094501E+002
  0.30496361E+002 -0.40106928E+002  0.46099140E+002
  0.25059825E+002 -0.32960310E+002  0.33839224E+002
  0.17011949E+002 -0.22379546E+002  0.21614553E+002
  0.69357842E+001 -0.91248136E+001  0.98378034E+001
  
POINT_DATA 9
SCALARS Gamma_LL double
LOOKUP_TABLE default
  0.31180205E+002
  0.61861691E+002
  0.43729599E+002
  0.53402917E+002
  0.64079181E+002
  0.60762635E+002
  0.54966018E+002
  0.66251422E+002
  0.18425397E+002
VECTORS Vind_CP double
 -0.72267294E-001 -0.97265017E-001 -0.17576063E+000
 -0.53745886E-001  0.68048915E-001 -0.12691668E+000
 -0.61352172E-001  0.62627240E-001 -0.58162575E-001
 -0.14172032E+000  0.14686101E+000 -0.61442940E-001
 -0.22331908E+000  0.24313458E+000  0.22606767E-002
 -0.16949887E+000  0.17957292E+000  0.83536202E-001
 -0.91358056E-001  0.99748681E-001  0.96122294E-001
 -0.89566350E-001  0.10261816E+000  0.14852483E+000
 -0.49508210E-001 -0.61519918E-001  0.40762902E-001
VECTORS Vtot_CP double
 -0.62901404E+000 -0.12846455E+002  0.47160064E+000
 -0.24166424E+002 -0.29877021E+002  0.28136795E+000
 -0.43491145E+002 -0.43469704E+002 -0.71890929E+000
 -0.56082055E+002 -0.53982505E+002 -0.58339143E+000
 -0.59883132E+002 -0.58190806E+002  0.10409716E-001
 -0.55894469E+002 -0.54990899E+002  0.43226381E+000
 -0.43111590E+002 -0.44773360E+002  0.64786642E+000
 -0.23649509E+002 -0.30422102E+002  0.27388569E+000
  0.64016121E+000 -0.12616264E+002 -0.92900048E-001
VECTORS Vstr_CP double
  0.17756747E+002  0.12749190E+002 -0.64736126E+000
  0.41312678E+002  0.29945070E+002 -0.40828462E+000
  0.60629793E+002  0.43532332E+002  0.66074671E+000
  0.73140335E+002  0.54129366E+002  0.52194849E+000
  0.76859813E+002  0.58433941E+002 -0.81490394E-002
  0.72924971E+002  0.55170472E+002 -0.34872761E+000
  0.60220231E+002  0.44873109E+002 -0.55174412E+000
  0.40759943E+002  0.30524720E+002 -0.12536086E+000
  0.16510331E+002  0.12554744E+002  0.13366295E+000
VECTORS Vwnd_CP double
  0.17200000E+002  0.00000000E+000  0.00000000E+000
  0.17200000E+002  0.00000000E+000  0.00000000E+000
  0.17200000E+002  0.00000000E+000  0.00000000E+000
  0.17200000E+002  0.00000000E+000  0.00000000E+000
  0.17200000E+002  0.00000000E+000  0.00000000E+000
  0.17200000E+002  0.00000000E+000  0.00000000E+000
  0.17200000E+002  0.00000000E+000  0.00000000E+000
  0.17200000E+002  0.00000000E+000  0.00000000E+000
  0.17200000E+002  0.00000000E+000  0.00000000E+000
VECTORS Tangent double
 -0.60850374E+000 -0.79355090E+000  0.41432130E-003
 -0.79562174E+000 -0.60579204E+000  0.14300169E-002
 -0.79839546E+000 -0.60213326E+000  0.48569402E-003
 -0.79709179E+000 -0.60385811E+000 -0.26300457E-003
 -0.79518516E+000 -0.60636665E+000 -0.22181822E-003
 -0.79626214E+000 -0.60495164E+000 -0.34134509E-003
 -0.79713082E+000 -0.60380664E+000 -0.58265910E-004
 -0.79582974E+000 -0.60552045E+000  0.82239341E-004
 -0.79562412E+000 -0.60578822E+000 -0.17028210E-002
VECTORS Normal double
  0.41880703E+000 -0.32070237E+000  0.84955910E+000
  0.38979666E+000 -0.51013266E+000  0.76669631E+000
  0.42702232E+000 -0.56563897E+000  0.70548175E+000
  0.54206169E+000 -0.71571242E+000  0.44036900E+000
  0.60636626E+000 -0.79518412E+000 -0.14749870E-002
  0.54275080E+000 -0.71414141E+000 -0.44206743E+000
  0.42841415E+000 -0.56551392E+000 -0.70473777E+000
  0.38954531E+000 -0.51207966E+000 -0.76552523E+000
  0.31152946E+000 -0.40673949E+000 -0.85878541E+000
VECTORS Orth double
  0.67403552E+000 -0.51713341E+000 -0.52749328E+000
  0.46372903E+000 -0.61055767E+000 -0.64200835E+000
  0.42451930E+000 -0.56346082E+000 -0.70872792E+000
  0.26610863E+000 -0.35087195E+000 -0.89781684E+000
 -0.71799657E-003  0.13073908E-002 -0.99999889E+000
 -0.26718565E+000  0.35218683E+000 -0.89698175E+000
 -0.42549240E+000  0.56179315E+000 -0.70946788E+000
 -0.46358329E+000  0.60919571E+000 -0.64340587E+000
 -0.51954948E+000  0.68380086E+000 -0.51233263E+000
