# vtk DataFile Version 2.0

ASCII
 
DATASET POLYDATA
POINTS 100 double
  0.91283202E-001  0.17244898E-001  0.11318144E+003
 -0.20306555E+002 -0.29619340E+001  0.10104507E+003
 -0.34666777E+002 -0.50770140E+001  0.88821063E+002
 -0.46607199E+002 -0.68593872E+001  0.76525801E+002
 -0.52593197E+002 -0.77593603E+001  0.64276354E+002
 -0.52598168E+002 -0.77662303E+001  0.52034180E+002
 -0.46613256E+002 -0.68766522E+001  0.39786187E+002
 -0.34671475E+002 -0.50813723E+001  0.27482787E+002
 -0.20336614E+002 -0.29686303E+001  0.15240319E+002
  0.19023144E-003  0.47894972E-004  0.30001531E+001
 -0.43613999E+001 -0.63321485E+000  0.11315875E+003
 -0.20955049E+002  0.14023999E+001  0.10104581E+003
 -0.35131132E+002 -0.20151591E+001  0.88825316E+002
 -0.46963600E+002 -0.44299210E+001  0.76524891E+002
 -0.52911950E+002 -0.55262189E+001  0.64275116E+002
 -0.52922146E+002 -0.54895302E+001  0.52034375E+002
 -0.46975548E+002 -0.43017248E+001  0.39782887E+002
 -0.35154377E+002 -0.16899615E+001  0.27483963E+002
 -0.20977241E+002  0.14855357E+001  0.15241175E+002
 -0.64651908E+000  0.44533350E+001  0.30011289E+001
 -0.42220502E+001 -0.55783096E+000  0.11316019E+003
 -0.20763130E+002  0.17836113E+001  0.10103287E+003
 -0.34996209E+002 -0.13696797E+001  0.88801224E+002
 -0.46893488E+002 -0.35615692E+001  0.76513695E+002
 -0.52871521E+002 -0.45439583E+001  0.64262216E+002
 -0.52879563E+002 -0.45054641E+001  0.52015952E+002
 -0.46902327E+002 -0.34304972E+001  0.39763476E+002
 -0.35016889E+002 -0.10448682E+001  0.27476965E+002
 -0.20779853E+002  0.18677464E+001  0.15238622E+002
 -0.39641012E+000  0.44631624E+001  0.30031266E+001
 -0.40788556E+001 -0.48129951E+000  0.11316216E+003
 -0.20565443E+002  0.21632014E+001  0.10102125E+003
 -0.34846228E+002 -0.72584204E+000  0.88777662E+002
 -0.46800361E+002 -0.26944572E+001  0.76501702E+002
 -0.52802810E+002 -0.35631240E+001  0.64250294E+002
 -0.52808941E+002 -0.35230132E+001  0.52000560E+002
 -0.46806412E+002 -0.25605457E+001  0.39748703E+002
 -0.34863926E+002 -0.40087854E+000  0.27473683E+002
 -0.20577234E+002  0.22483158E+001  0.15233392E+002
 -0.14567169E+000  0.44716851E+001  0.30048714E+001
 -0.39315695E+001 -0.40364166E+000  0.11316459E+003
 -0.20354998E+002  0.25416215E+001  0.10100332E+003
 -0.34681312E+002 -0.83997309E-001  0.88754971E+002
 -0.46683140E+002 -0.18294699E+001  0.76488579E+002
 -0.52704168E+002 -0.25849668E+001  0.64238866E+002
 -0.52708704E+002 -0.25434460E+001  0.51988912E+002
 -0.46687058E+002 -0.16928267E+001  0.39739014E+002
 -0.34695817E+002  0.24150847E+000  0.27473883E+002
 -0.20362668E+002  0.26276419E+001  0.15233485E+002
  0.10575275E+000  0.44790009E+001  0.30061910E+001
 -0.37799406E+001 -0.32493775E+000  0.11316729E+003
 -0.20135708E+002  0.29184518E+001  0.10098506E+003
 -0.34502540E+002  0.55582076E+000  0.88734531E+002
 -0.46543250E+002 -0.96713078E+000  0.76475414E+002
 -0.52576651E+002 -0.16104061E+001  0.64228302E+002
 -0.52579853E+002 -0.15677366E+001  0.51980965E+002
 -0.46545618E+002 -0.82798009E+000  0.39733802E+002
 -0.34513621E+002  0.88203337E+000  0.27476539E+002
 -0.20140118E+002  0.30052967E+001  0.15234424E+002
  0.35816349E+000  0.44853603E+001  0.30064736E+001
 -0.36237737E+001 -0.24533473E+000  0.11316977E+003
 -0.19908023E+002  0.32937945E+001  0.10096829E+003
 -0.34310639E+002  0.11934882E+001  0.88717386E+002
 -0.46382560E+002 -0.10781397E+000  0.76463393E+002
 -0.52425337E+002 -0.63958973E+000  0.64219262E+002
 -0.52427484E+002 -0.59610066E+000  0.51976330E+002
 -0.46384077E+002  0.33545021E-001  0.39732083E+002
 -0.34318561E+002  0.15204971E+001  0.27480463E+002
 -0.19910142E+002  0.33812605E+001  0.15235675E+002
  0.61080946E+000  0.44902741E+001  0.30070724E+001
 -0.34627955E+001 -0.16508216E+000  0.11317142E+003
 -0.19672121E+002  0.36675535E+001  0.10095512E+003
 -0.34105767E+002  0.18288054E+001  0.88704240E+002
 -0.46203027E+002  0.74822347E+000  0.76453895E+002
 -0.52253300E+002  0.32728487E+000  0.64212720E+002
 -0.52254738E+002  0.37118390E+000  0.51974389E+002
 -0.46204701E+002  0.89145596E+000  0.39732959E+002
 -0.34111768E+002  0.21566529E+001  0.27484603E+002
 -0.19673198E+002  0.37554936E+001  0.15237033E+002
  0.86366563E+000  0.44938057E+001  0.30074857E+001
 -0.32966938E+001 -0.84372751E-001  0.11317196E+003
 -0.19428701E+002  0.40392250E+001  0.10094316E+003
 -0.33892366E+002  0.24620083E+001  0.88698874E+002
 -0.46005908E+002  0.16007189E+001  0.76447509E+002
 -0.52062628E+002  0.12900398E+001  0.64208956E+002
 -0.52063647E+002  0.13340052E+001  0.51974583E+002
 -0.46007928E+002  0.17452804E+001  0.39735603E+002
 -0.33904174E+002  0.27912473E+001  0.27476798E+002
 -0.19429348E+002  0.41278659E+001  0.15238293E+002
  0.11165321E+001  0.44959015E+001  0.30079095E+001
 -0.31264027E+001 -0.34387204E-002  0.11317193E+003
 -0.19179023E+002  0.44099000E+001  0.10093919E+003
 -0.33673990E+002  0.30940949E+001  0.88702898E+002
 -0.45793610E+002  0.24505945E+001  0.76443992E+002
 -0.51855312E+002  0.22495672E+001  0.64207374E+002
 -0.51855737E+002  0.22935076E+001  0.51975426E+002
 -0.45794222E+002  0.25956046E+001  0.39738359E+002
 -0.33673302E+002  0.34227062E+001  0.27480344E+002
 -0.19178321E+002  0.44981961E+001  0.15239838E+002
  0.13693135E+001  0.44965354E+001  0.30084509E+001
  
POLYGONS 81 405
      4      0      1     11     10
      4      1      2     12     11
      4      2      3     13     12
      4      3      4     14     13
      4      4      5     15     14
      4      5      6     16     15
      4      6      7     17     16
      4      7      8     18     17
      4      8      9     19     18
      4     10     11     21     20
      4     11     12     22     21
      4     12     13     23     22
      4     13     14     24     23
      4     14     15     25     24
      4     15     16     26     25
      4     16     17     27     26
      4     17     18     28     27
      4     18     19     29     28
      4     20     21     31     30
      4     21     22     32     31
      4     22     23     33     32
      4     23     24     34     33
      4     24     25     35     34
      4     25     26     36     35
      4     26     27     37     36
      4     27     28     38     37
      4     28     29     39     38
      4     30     31     41     40
      4     31     32     42     41
      4     32     33     43     42
      4     33     34     44     43
      4     34     35     45     44
      4     35     36     46     45
      4     36     37     47     46
      4     37     38     48     47
      4     38     39     49     48
      4     40     41     51     50
      4     41     42     52     51
      4     42     43     53     52
      4     43     44     54     53
      4     44     45     55     54
      4     45     46     56     55
      4     46     47     57     56
      4     47     48     58     57
      4     48     49     59     58
      4     50     51     61     60
      4     51     52     62     61
      4     52     53     63     62
      4     53     54     64     63
      4     54     55     65     64
      4     55     56     66     65
      4     56     57     67     66
      4     57     58     68     67
      4     58     59     69     68
      4     60     61     71     70
      4     61     62     72     71
      4     62     63     73     72
      4     63     64     74     73
      4     64     65     75     74
      4     65     66     76     75
      4     66     67     77     76
      4     67     68     78     77
      4     68     69     79     78
      4     70     71     81     80
      4     71     72     82     81
      4     72     73     83     82
      4     73     74     84     83
      4     74     75     85     84
      4     75     76     86     85
      4     76     77     87     86
      4     77     78     88     87
      4     78     79     89     88
      4     80     81     91     90
      4     81     82     92     91
      4     82     83     93     92
      4     83     84     94     93
      4     84     85     95     94
      4     85     86     96     95
      4     86     87     97     96
      4     87     88     98     97
      4     88     89     99     98
  
CELL_DATA 81
SCALARS Gamma double
LOOKUP_TABLE default
 -0.46587266E+001
 -0.13835549E+003
 -0.12171970E+003
 -0.11050393E+003
 -0.10856606E+003
 -0.10380919E+003
 -0.10921629E+003
 -0.13273300E+003
 -0.66919081E+002
 -0.46587266E+001
 -0.13835549E+003
 -0.12171970E+003
 -0.11050393E+003
 -0.10856606E+003
 -0.10380919E+003
 -0.10921629E+003
 -0.13273300E+003
 -0.66919081E+002
 -0.38266154E+001
 -0.11048758E+003
 -0.96801330E+002
 -0.90032760E+002
 -0.89688879E+002
 -0.85493586E+002
 -0.89374969E+002
 -0.10715760E+003
 -0.54436325E+002
 -0.28342566E+001
 -0.79388323E+002
 -0.69385444E+002
 -0.66057483E+002
 -0.66650169E+002
 -0.63428619E+002
 -0.65857825E+002
 -0.77955958E+002
 -0.39714610E+002
 -0.17915563E+001
 -0.48619196E+002
 -0.42402214E+002
 -0.41280658E+002
 -0.42145739E+002
 -0.40220134E+002
 -0.41313394E+002
 -0.48317845E+002
 -0.24714688E+002
 -0.81856091E+000
 -0.21541708E+002
 -0.18744617E+002
 -0.18631326E+002
 -0.19216129E+002
 -0.18418026E+002
 -0.18723285E+002
 -0.21655029E+002
 -0.11135103E+002
 -0.16983547E+000
 -0.43158211E+001
 -0.37588562E+001
 -0.38076947E+001
 -0.39630860E+001
 -0.38217750E+001
 -0.38456670E+001
 -0.43977668E+001
 -0.22764939E+001
 -0.20358333E-002
 -0.50129804E-001
 -0.43769850E-001
 -0.45116199E-001
 -0.47341231E-001
 -0.45934438E-001
 -0.45782683E-001
 -0.51804677E-001
 -0.27059359E-001
 -0.00000000E+000
 -0.00000000E+000
 -0.00000000E+000
 -0.00000000E+000
 -0.00000000E+000
 -0.00000000E+000
 -0.00000000E+000
 -0.00000000E+000
 -0.00000000E+000
POINT_DATA 100
VECTORS Uconv double
  0.00000000E+000  0.00000000E+000  0.00000000E+000
  0.00000000E+000  0.00000000E+000  0.00000000E+000
  0.00000000E+000  0.00000000E+000  0.00000000E+000
  0.00000000E+000  0.00000000E+000  0.00000000E+000
  0.00000000E+000  0.00000000E+000  0.00000000E+000
  0.00000000E+000  0.00000000E+000  0.00000000E+000
  0.00000000E+000  0.00000000E+000  0.00000000E+000
  0.00000000E+000  0.00000000E+000  0.00000000E+000
  0.00000000E+000  0.00000000E+000  0.00000000E+000
  0.00000000E+000  0.00000000E+000  0.00000000E+000
  0.00000000E+000  0.00000000E+000  0.00000000E+000
  0.00000000E+000  0.00000000E+000  0.00000000E+000
  0.00000000E+000  0.00000000E+000  0.00000000E+000
  0.00000000E+000  0.00000000E+000  0.00000000E+000
  0.00000000E+000  0.00000000E+000  0.00000000E+000
  0.00000000E+000  0.00000000E+000  0.00000000E+000
  0.00000000E+000  0.00000000E+000  0.00000000E+000
  0.00000000E+000  0.00000000E+000  0.00000000E+000
  0.00000000E+000  0.00000000E+000  0.00000000E+000
  0.00000000E+000  0.00000000E+000  0.00000000E+000
  0.17132323E+002 -0.12976694E+000 -0.40267874E+000
  0.16943675E+002  0.51991076E-001  0.10651360E+001
  0.16576183E+002  0.88385530E-001  0.59030428E+000
  0.16258093E+002  0.78373479E-001  0.55345086E+000
  0.15820671E+002  0.79924104E-001  0.23792987E+000
  0.15833761E+002  0.75628135E-001 -0.22138037E+000
  0.16290657E+002  0.65710913E-001 -0.52798140E+000
  0.16605285E+002  0.70458798E-001 -0.57267842E+000
  0.16874093E+002  0.74684365E-001 -0.24734177E+000
  0.16989778E+002 -0.10838340E+000  0.23141495E+000
  0.17128537E+002 -0.13189480E+000 -0.41114748E+000
  0.16637176E+002 -0.18357242E-002  0.13499198E+001
  0.16702829E+002  0.54474155E-001  0.46502936E+000
  0.16440553E+002  0.57290417E-001  0.43021344E+000
  0.16078077E+002  0.63741602E-001  0.20149926E+000
  0.16092857E+002  0.59832363E-001 -0.18989447E+000
  0.16465631E+002  0.48587308E-001 -0.41321098E+000
  0.16726478E+002  0.42631604E-001 -0.45257635E+000
  0.16590489E+002  0.26732526E-001 -0.59518206E+000
  0.16980390E+002 -0.11784481E+000  0.25053924E+000
  0.17124492E+002 -0.13405192E+000 -0.41978872E+000
  0.16680402E+002 -0.13341736E-001  0.11705376E+001
  0.16834680E+002  0.16182982E-001  0.33393941E+000
  0.16674869E+002  0.22995696E-001  0.27363121E+000
  0.16454381E+002  0.25293712E-001  0.14355165E+000
  0.16465593E+002  0.22488535E-001 -0.13722050E+000
  0.16688975E+002  0.18979935E-001 -0.26682465E+000
  0.16851813E+002  0.10139999E-001 -0.32783983E+000
  0.16649315E+002  0.18791754E-001 -0.54308927E+000
  0.16970328E+002 -0.12601432E+000  0.26975654E+000
  0.17120170E+002 -0.13624304E+000 -0.42860674E+000
  0.16722013E+002 -0.27736170E-001  0.94882644E+000
  0.16966033E+002 -0.24376243E-001  0.20238154E+000
  0.16936535E+002 -0.22413927E-001  0.97658602E-001
  0.16894255E+002 -0.33541621E-001  0.69317830E-001
  0.16897372E+002 -0.34528804E-001 -0.67601517E-001
  0.16938142E+002 -0.21485575E-001 -0.10181343E+000
  0.16976375E+002 -0.25367503E-001 -0.20292405E+000
  0.16706094E+002  0.90670232E-002 -0.49287442E+000
  0.16959559E+002 -0.13289278E+000  0.28891671E+000
  0.17115559E+002 -0.13848141E+000 -0.43761170E+000
  0.16760550E+002 -0.39274817E-001  0.71967103E+000
  0.17092131E+002 -0.65314510E-001  0.74896468E-001
  0.17196147E+002 -0.73434759E-001 -0.80205725E-001
  0.17323005E+002 -0.10225978E+000 -0.10915300E-001
  0.17315710E+002 -0.10149284E+000  0.97442326E-002
  0.17184636E+002 -0.67492583E-001  0.65760084E-001
  0.17096138E+002 -0.62188661E-001 -0.81669310E-001
  0.16760310E+002 -0.21275013E-002 -0.44827416E+000
  0.16948072E+002 -0.13856887E+000  0.30783416E+000
  0.17110648E+002 -0.14078590E+000 -0.44682129E+000
  0.16795759E+002 -0.49183195E-001  0.49700118E+000
  0.17209471E+002 -0.10518815E+000 -0.45050327E-001
  0.17426690E+002 -0.12282970E+000 -0.24296130E+000
  0.17673152E+002 -0.16798969E+000 -0.84647870E-001
  0.17658580E+002 -0.16552357E+000  0.81511901E-001
  0.17404440E+002 -0.11390069E+000  0.22003923E+000
  0.17208425E+002 -0.98936326E-001  0.32810452E-001
  0.16812095E+002 -0.14422393E-001 -0.40339219E+000
  0.16935848E+002 -0.14302442E+000  0.32634102E+000
  0.17105167E+002 -0.14259313E+000 -0.45915788E+000
  0.16837067E+002 -0.10014852E+000 -0.26882877E-001
  0.17050561E+002 -0.11256912E+000  0.99853547E-001
  0.17611265E+002 -0.16749969E+000 -0.37822384E+000
  0.17906330E+002 -0.22006060E+000 -0.14128027E+000
  0.17888149E+002 -0.21667323E+000  0.14153910E+000
  0.17581390E+002 -0.15623288E+000  0.34906454E+000
  0.16620231E+002 -0.66905375E-001 -0.62617972E+000
  0.16861389E+002 -0.27719007E-001 -0.35803848E+000
  0.16922872E+002 -0.14627309E+000  0.34428745E+000
  0.17099597E+002 -0.14500547E+000 -0.46824665E+000
  0.16905780E+002 -0.10225885E+000 -0.81026581E-001
  0.16688436E+002 -0.76024042E-001  0.53515225E+000
  0.17742697E+002 -0.20324411E+000 -0.47930468E+000
  0.18019546E+002 -0.25300855E+000 -0.17620171E+000
  0.18001164E+002 -0.24959244E+000  0.17506754E+000
  0.17708902E+002 -0.19147541E+000  0.44641783E+000
  0.16734115E+002 -0.86387629E-001 -0.50471553E+000
  0.16943143E+002 -0.63977375E-001 -0.26051302E+000
  0.16909158E+002 -0.15134634E+000  0.37384520E+000
