<?xml version="1.0"?>
<VTKFile type="PolyData" version="0.1" byte_order="LittleEndian">
  <PolyData>
    <Piece NumberOfPoints="     10" NumberOfVerts="  0" NumberOfLines="      9"
           NumberOfStrips="  0" NumberOfPolys="      0">
      <Points>
        <DataArray type="Float32" NumberOfComponents="3" format="ascii">
                       0.41735                       0.09494                     113.18030
                       3.85822                      20.24774                     100.73572
                       6.35584                      34.67603                      88.68927
                       8.47914                      46.74221                      76.56927
                       9.51197                      52.48936                      64.21159
                       9.53057                      52.34986                      51.94546
                       8.49791                      46.50348                      39.63716
                       6.32858                      34.57232                      27.38530
                       3.70372                      20.21582                      15.26196
                       0.00015                       0.00002                       3.00020
        </DataArray>
      </Points>
      <PointData>
        <DataArray type="Float32" Name="TranslationalVelocity" NumberOfComponents="3" format="ascii">
                       3.46384                       0.87259                      -0.01679
                     -34.65110                       6.82763                      -0.91446
                     -62.09334                      11.88420                      -0.69721
                     -84.78951                      16.54906                       0.06201
                     -95.56029                      18.00012                      -0.07315
                     -95.06557                      17.26427                      -0.07225
                     -84.08023                      15.29795                      -0.08915
                     -62.32225                      11.51520                      -0.17204
                     -36.42463                       6.67536                      -0.03241
                       0.00004                      -0.00044                       0.00012
        </DataArray>
        <DataArray type="Float32" Name="RotationalVelocity" NumberOfComponents="3" format="ascii">
                       0.00139                       0.09466                       1.81725
                      -0.00577                       0.13479                       1.80605
                       0.07169                       0.07104                       1.83701
                       0.00861                      -0.01437                       1.90775
                      -0.07265                      -0.02049                       1.90667
                      -0.03238                      -0.03110                       1.82389
                       0.01193                      -0.04192                       1.78893
                      -0.01052                      -0.01188                       1.79501
                      -0.00398                      -0.00055                       1.80122
                       0.02263                       0.00832                       1.80183
        </DataArray>
        <DataArray type="Float32" Name="TranslationalAcceleration" NumberOfComponents="3" format="ascii">
                       7.19554                     -11.58017                       0.05572
                       6.33483                      -4.11605                       9.35389
                       1.13547                     -17.97624                      -4.61463
                      -2.40077                     -14.97149                      -8.85133
                      -1.34777                       3.24720                       0.82226
                      -1.65873                       8.38950                       2.72874
                      -3.06366                      -2.68179                       9.57239
                      -2.61098                      -8.23923                       9.43794
                       0.09301                       2.07909                      -0.22286
                       0.02052                      -0.00272                       0.03194
        </DataArray>
        <DataArray type="Float32" Name="OrientationX" NumberOfComponents="3" format="ascii">
                       0.65099                       0.75895                      -0.01469
                       0.20652                       0.97843                       0.00552
                       0.18205                       0.98329                      -0.00093
                       0.16640                       0.98602                      -0.00808
                       0.18087                       0.98350                       0.00236
                       0.18801                       0.98212                       0.00920
                       0.17336                       0.98486                      -0.00078
                       0.17686                       0.98424                      -0.00131
                       0.18289                       0.98313                       0.00106
                       0.18098                       0.98345                       0.00901
        </DataArray>
        <DataArray type="Float32" Name="OrientationY" NumberOfComponents="3" format="ascii">
                       0.75908                      -0.65096                       0.00713
                       0.97844                      -0.20650                      -0.00361
                       0.98327                      -0.18205                      -0.00628
                       0.98605                      -0.16644                      -0.00359
                       0.98351                      -0.18087                      -0.00048
                       0.98217                      -0.18801                      -0.00039
                       0.98486                      -0.17337                      -0.00063
                       0.98424                      -0.17686                      -0.00001
                       0.98313                      -0.18289                       0.00013
                       0.98338                      -0.18108                       0.01283
        </DataArray>
        <DataArray type="Float32" Name="OrientationZ" NumberOfComponents="3" format="ascii">
                      -0.00415                      -0.01580                      -0.99987
                      -0.00240                       0.00614                      -0.99998
                      -0.00635                       0.00023                      -0.99998
                      -0.00489                      -0.00737                      -0.99996
                      -0.00004                       0.00241                      -1.00000
                       0.00135                       0.00911                      -0.99996
                      -0.00075                      -0.00066                      -1.00000
                      -0.00024                      -0.00129                      -1.00000
                       0.00032                       0.00101                      -1.00000
                       0.01424                       0.00654                      -0.99988
        </DataArray>
      </PointData>
      <Lines>
        <DataArray type="Int32" Name="connectivity" format="ascii">
      0      1
      1      2
      2      3
      3      4
      4      5
      5      6
      6      7
      7      8
      8      9
        </DataArray>
        <DataArray type="Int32" Name="offsets" format="ascii">
      2
      4
      6
      8
     10
     12
     14
     16
     18
        </DataArray>
      </Lines>
    </Piece>
  </PolyData>
</VTKFile>
