# vtk DataFile Version 2.0
BldPointCP.BldC
ASCII
 
DATASET POLYDATA
POINTS 9 double
  0.87013894E+001 -0.76843864E+001  0.10623826E+003
  0.20907237E+002 -0.19024208E+002  0.94458425E+002
  0.30758302E+002 -0.28116106E+002  0.82373852E+002
  0.37355823E+002 -0.34133593E+002  0.70125765E+002
  0.39405407E+002 -0.35927439E+002  0.58076112E+002
  0.37279671E+002 -0.33920032E+002  0.46053270E+002
  0.30667467E+002 -0.27909203E+002  0.33776741E+002
  0.20797556E+002 -0.18957900E+002  0.21588566E+002
  0.84666112E+001 -0.77254724E+001  0.98430780E+001
  
POINT_DATA 9
SCALARS Gamma_LL double
LOOKUP_TABLE default
  0.60168888E+002
  0.10854302E+003
  0.84897822E+002
  0.94386827E+002
  0.10400519E+003
  0.10560066E+003
  0.99898026E+002
  0.11298045E+003
  0.32854911E+002
VECTORS Vind_CP double
 -0.16219543E+000 -0.26846024E+000 -0.44059567E+000
 -0.19755212E+000  0.16084034E+000 -0.32648486E+000
 -0.30300715E+000  0.25899093E+000 -0.24648992E+000
 -0.65494056E+000  0.51401376E+000 -0.21128670E+000
 -0.92603386E+000  0.68356515E+000  0.22511891E-001
 -0.75840557E+000  0.59649915E+000  0.29411943E+000
 -0.40788373E+000  0.34278097E+000  0.35163242E+000
 -0.30081135E+000  0.23188639E+000  0.36578644E+000
 -0.10172009E+000 -0.38273626E-001  0.60579182E-001
VECTORS Vtot_CP double
  0.47246812E+000 -0.16216436E+002  0.59503514E+000
 -0.19446652E+002 -0.37187278E+002  0.11064773E+001
 -0.36168341E+002 -0.53732923E+002  0.16009935E+000
 -0.46949416E+002 -0.65525243E+002 -0.59237056E-001
 -0.49638482E+002 -0.70330283E+002  0.52124691E+000
 -0.45790344E+002 -0.67222407E+002  0.95403644E+000
 -0.34693532E+002 -0.55317626E+002  0.10583552E+001
 -0.17890463E+002 -0.37447905E+002  0.66561396E+000
  0.30700364E+001 -0.15403233E+002  0.41470138E-001
VECTORS Vstr_CP double
  0.16565336E+002  0.15947976E+002 -0.10356308E+001
  0.36449100E+002  0.37348118E+002 -0.14329622E+001
  0.53065334E+002  0.53991914E+002 -0.40658926E+000
  0.63494475E+002  0.66039256E+002 -0.15204965E+000
  0.65912448E+002  0.71013848E+002 -0.49873502E+000
  0.62231938E+002  0.67818906E+002 -0.65991701E+000
  0.51485648E+002  0.55660407E+002 -0.70672275E+000
  0.34789652E+002  0.37679792E+002 -0.29982752E+000
  0.14028244E+002  0.15364960E+002  0.19109045E-001
VECTORS Vwnd_CP double
  0.17200000E+002  0.00000000E+000  0.00000000E+000
  0.17200000E+002  0.00000000E+000  0.00000000E+000
  0.17200000E+002  0.00000000E+000  0.00000000E+000
  0.17200000E+002  0.00000000E+000  0.00000000E+000
  0.17200000E+002  0.00000000E+000  0.00000000E+000
  0.17200000E+002  0.00000000E+000  0.00000000E+000
  0.17200000E+002  0.00000000E+000  0.00000000E+000
  0.17200000E+002  0.00000000E+000  0.00000000E+000
  0.17200000E+002  0.00000000E+000  0.00000000E+000
VECTORS Tangent double
 -0.44807677E+000 -0.89399457E+000 -0.96169967E-003
 -0.66881407E+000 -0.74340339E+000  0.62554035E-002
 -0.68475808E+000 -0.72875849E+000  0.41764358E-002
 -0.68377416E+000 -0.72969331E+000 -0.75348107E-003
 -0.67647682E+000 -0.73646391E+000 -0.14299741E-003
 -0.67816053E+000 -0.73491317E+000  0.96126734E-003
 -0.67881698E+000 -0.73430691E+000  0.92698686E-003
 -0.67395254E+000 -0.73877448E+000  0.49809641E-003
 -0.67344325E+000 -0.73921277E+000 -0.62182847E-002
VECTORS Normal double
  0.47834133E+000 -0.24065677E+000  0.84455544E+000
  0.47591651E+000 -0.42167099E+000  0.77181413E+000
  0.51398677E+000 -0.47887508E+000  0.71168551E+000
  0.65944273E+000 -0.61838582E+000  0.42747427E+000
  0.73641185E+000 -0.67642667E+000 -0.12022852E-001
  0.66120209E+000 -0.61071160E+000 -0.43570994E+000
  0.52025889E+000 -0.48183420E+000 -0.70510034E+000
  0.47240688E+000 -0.43147487E+000 -0.76854484E+000
  0.38253771E+000 -0.34127985E+000 -0.85859942E+000
VECTORS Orth double
  0.75525941E+000 -0.37796565E+000 -0.53546726E+000
  0.57113152E+000 -0.51917720E+000 -0.63581744E+000
  0.51664686E+000 -0.48947903E+000 -0.70248580E+000
  0.31239106E+000 -0.29179899E+000 -0.90402720E+000
 -0.87576693E-002  0.82384856E-002 -0.99992771E+000
 -0.32079603E+000  0.29484569E+000 -0.90008662E+000
 -0.51820671E+000  0.47815181E+000 -0.70910694E+000
 -0.56799623E+000  0.51772744E+000 -0.63979573E+000
 -0.63256548E+000  0.58059671E+000 -0.51260937E+000
