<?xml version="1.0"?>
<VTKFile type="PolyData" version="0.1" byte_order="LittleEndian">
  <PolyData>
    <Piece NumberOfPoints="     10" NumberOfVerts="  0" NumberOfLines="      9"
           NumberOfStrips="  0" NumberOfPolys="      0">
      <Points>
        <DataArray type="Float32" NumberOfComponents="3" format="ascii">
                       0.07041                       0.01298                     113.18156
                     -20.36460                      -2.59245                     101.02099
                     -34.75480                      -4.44055                      88.79077
                     -46.74261                      -5.99773                      76.50808
                     -52.74872                      -6.78296                      64.26053
                     -52.75250                      -6.78808                      52.01860
                     -46.74688                      -6.01188                      39.77247
                     -34.75954                      -4.44492                      27.48204
                     -20.38712                      -2.59783                      15.24050
                       0.00019                       0.00005                       3.00014
        </DataArray>
      </Points>
      <PointData>
        <DataArray type="Float32" Name="TranslationalVelocity" NumberOfComponents="3" format="ascii">
                       1.98089                       0.39820                      -0.01234
                       5.39666                     -36.99286                       2.22568
                       8.59649                     -63.71428                       2.77160
                      12.65541                     -86.11861                       1.71957
                      14.51243                     -97.66136                       1.48084
                      14.48906                     -97.79248                       1.47587
                      12.46214                     -86.35488                       1.13063
                       8.29645                     -63.83431                       0.05515
                       4.70598                     -37.07938                      -0.01700
                       0.00063                       0.00026                       0.00122
        </DataArray>
        <DataArray type="Float32" Name="RotationalVelocity" NumberOfComponents="3" format="ascii">
                      -0.02536                       0.08861                       1.80830
                      -0.03237                       0.10267                       1.82242
                      -0.05624                      -0.05066                       1.80847
                      -0.04586                      -0.07532                       1.83398
                      -0.02148                      -0.00487                       1.89034
                      -0.00092                       0.01302                       1.91087
                       0.03037                       0.09397                       1.85827
                       0.06770                       0.05035                       1.81117
                       0.02053                      -0.00511                       1.82267
                       0.01799                       0.00201                       1.80158
        </DataArray>
        <DataArray type="Float32" Name="TranslationalAcceleration" NumberOfComponents="3" format="ascii">
                      23.19345                      -1.36883                       0.59587
                       8.63601                      -6.06052                      23.14025
                       3.17158                     -12.67070                      37.80469
                      16.47091                     -26.60110                      25.24287
                      29.92134                     -36.11340                      21.06090
                      28.92967                     -37.10107                      20.26271
                      15.24777                     -27.49317                      15.88762
                       7.07322                     -10.28757                       7.06474
                      -2.57672                      -4.31692                       0.98461
                      -0.07367                      -0.02454                       0.05001
        </DataArray>
        <DataArray type="Float32" Name="OrientationX" NumberOfComponents="3" format="ascii">
                       0.12656                      -0.99196                       0.00025
                      -0.99168                      -0.12872                       0.00011
                      -0.99131                      -0.13148                       0.00333
                      -0.99182                      -0.12766                       0.00074
                      -0.99221                      -0.12457                      -0.00016
                      -0.99227                      -0.12411                      -0.00190
                      -0.99247                      -0.12243                      -0.00414
                      -0.99233                      -0.12360                       0.00096
                      -0.99219                      -0.12477                       0.00009
                      -0.99204                      -0.12589                      -0.00386
        </DataArray>
        <DataArray type="Float32" Name="OrientationY" NumberOfComponents="3" format="ascii">
                      -0.99195                      -0.12656                      -0.00385
                      -0.12872                       0.99168                       0.00028
                      -0.13148                       0.99132                       0.00147
                      -0.12766                       0.99182                       0.00003
                      -0.12457                       0.99221                      -0.00031
                      -0.12411                       0.99227                      -0.00019
                      -0.12243                       0.99248                      -0.00143
                      -0.12360                       0.99233                       0.00019
                      -0.12477                       0.99219                       0.00013
                      -0.12589                       0.99204                       0.00015
        </DataArray>
        <DataArray type="Float32" Name="OrientationZ" NumberOfComponents="3" format="ascii">
                       0.00385                       0.00024                      -0.99999
                      -0.00014                       0.00026                      -1.00000
                      -0.00349                       0.00102                      -0.99999
                      -0.00073                      -0.00006                      -1.00000
                       0.00019                      -0.00029                      -1.00000
                       0.00190                       0.00005                      -1.00000
                       0.00429                      -0.00091                      -0.99999
                      -0.00098                       0.00007                      -1.00000
                      -0.00010                       0.00012                      -1.00000
                       0.00381                       0.00063                      -0.99999
        </DataArray>
      </PointData>
      <Lines>
        <DataArray type="Int32" Name="connectivity" format="ascii">
      0      1
      1      2
      2      3
      3      4
      4      5
      5      6
      6      7
      7      8
      8      9
        </DataArray>
        <DataArray type="Int32" Name="offsets" format="ascii">
      2
      4
      6
      8
     10
     12
     14
     16
     18
        </DataArray>
      </Lines>
    </Piece>
  </PolyData>
</VTKFile>
