<?xml version="1.0"?>
<VTKFile type="PolyData" version="0.1" byte_order="LittleEndian">
  <PolyData>
    <Piece NumberOfPoints="     10" NumberOfVerts="  0" NumberOfLines="      9"
           NumberOfStrips="  0" NumberOfPolys="      0">
      <Points>
        <DataArray type="Float32" NumberOfComponents="3" format="ascii">
                      -0.08372                      -0.00779                     101.06337
                      -2.40900                      -0.26094                     101.06531
                      -4.73428                      -0.51401                     101.06873
                      -7.05956                      -0.76708                     101.07336
                      -9.38484                      -1.02012                     101.07898
                     -11.70987                      -1.27536                     101.09332
                     -14.03517                      -1.52781                     101.10092
                     -16.36033                      -1.78147                     101.10879
                     -18.68549                      -2.03510                     101.11594
                     -21.01064                      -2.28869                     101.12184
        </DataArray>
      </Points>
      <PointData>
        <DataArray type="Float32" Name="TranslationalVelocity" NumberOfComponents="3" format="ascii">
                       0.59458                      -0.07770                       0.00491
                       1.05219                      -4.28742                       0.09595
                       1.51050                      -8.50397                       0.25187
                       1.96958                     -12.72623                       0.45887
                       2.42928                     -16.95315                       0.70373
                       2.89392                     -21.18493                       0.97563
                       3.35378                     -25.41814                       1.25746
                       3.81612                     -29.65240                       1.53739
                       4.27842                     -33.88686                       1.80214
                       4.74055                     -38.12043                       2.03744
        </DataArray>
        <DataArray type="Float32" Name="RotationalVelocity" NumberOfComponents="3" format="ascii">
                      -0.02099                       0.02082                       1.80821
                      -0.02391                       0.04772                       1.81095
                      -0.02642                       0.07102                       1.81346
                      -0.02839                       0.08947                       1.81560
                      -0.02984                       0.10325                       1.81736
                      -0.03123                       0.11726                       1.81973
                      -0.03119                       0.11758                       1.82034
                      -0.03065                       0.11343                       1.82055
                      -0.02971                       0.10392                       1.82036
                      -0.02825                       0.08969                       1.81978
        </DataArray>
        <DataArray type="Float32" Name="TranslationalAcceleration" NumberOfComponents="3" format="ascii">
                      11.25336                      -0.64458                      -0.14893
                      12.50223                      -0.77784                       1.09440
                      13.44757                      -1.03765                       3.10714
                      14.40035                      -1.36967                       5.66737
                      15.35389                      -1.76398                       8.61484
                       9.49554                      -3.53245                      15.04361
                      10.39253                      -4.04531                      18.28177
                      11.25698                      -4.56822                      21.18674
                      12.12290                      -5.10594                      24.03612
                      12.94933                      -5.63706                      27.18201
        </DataArray>
        <DataArray type="Float32" Name="OrientationX" NumberOfComponents="3" format="ascii">
                       0.00011                      -0.00019                       1.00000
                       0.00006                      -0.00022                       1.00000
                      -0.00002                      -0.00024                       1.00000
                      -0.00010                      -0.00025                       1.00000
                      -0.00018                      -0.00026                       1.00000
                      -0.00039                      -0.00025                       1.00000
                      -0.00055                      -0.00026                       1.00000
                      -0.00126                      -0.00043                       1.00000
                      -0.00189                      -0.00058                       1.00000
                       0.00026                      -0.00033                       1.00000
        </DataArray>
        <DataArray type="Float32" Name="OrientationY" NumberOfComponents="3" format="ascii">
                      -0.10914                       0.99403                       0.00020
                      -0.10885                       0.99406                       0.00022
                      -0.10853                       0.99409                       0.00023
                      -0.10819                       0.99413                       0.00024
                      -0.10785                       0.99417                       0.00023
                      -0.10714                       0.99424                       0.00020
                      -0.10847                       0.99410                       0.00020
                      -0.10847                       0.99410                       0.00029
                      -0.10847                       0.99410                       0.00037
                      -0.11043                       0.99388                       0.00036
        </DataArray>
        <DataArray type="Float32" Name="OrientationZ" NumberOfComponents="3" format="ascii">
                      -0.99403                      -0.10914                       0.00009
                      -0.99406                      -0.10885                       0.00003
                      -0.99409                      -0.10853                      -0.00004
                      -0.99413                      -0.10819                      -0.00012
                      -0.99417                      -0.10785                      -0.00021
                      -0.99424                      -0.10714                      -0.00042
                      -0.99410                      -0.10847                      -0.00058
                      -0.99410                      -0.10847                      -0.00130
                      -0.99410                      -0.10847                      -0.00194
                      -0.99388                      -0.11043                       0.00022
        </DataArray>
      </PointData>
      <Lines>
        <DataArray type="Int32" Name="connectivity" format="ascii">
      0      1
      1      2
      2      3
      3      4
      4      5
      5      6
      6      7
      7      8
      8      9
        </DataArray>
        <DataArray type="Int32" Name="offsets" format="ascii">
      2
      4
      6
      8
     10
     12
     14
     16
     18
        </DataArray>
      </Lines>
    </Piece>
  </PolyData>
</VTKFile>
