# vtk DataFile Version 2.0
BldPointCP.BldB
ASCII
 
DATASET POLYDATA
POINTS 9 double
  0.34046699E+001  0.11018561E+002  0.10627896E+003
  0.80638957E+001  0.27018867E+002  0.94516199E+002
  0.11832980E+002  0.39835926E+002  0.82385120E+002
  0.14366922E+002  0.48396557E+002  0.70118576E+002
  0.15166809E+002  0.51065845E+002  0.58084229E+002
  0.14355534E+002  0.48288798E+002  0.46067307E+002
  0.11816713E+002  0.39725734E+002  0.33784546E+002
  0.80247389E+001  0.26969205E+002  0.21585034E+002
  0.32698425E+001  0.10985578E+002  0.98393528E+001
  
POINT_DATA 9
SCALARS Gamma_LL double
LOOKUP_TABLE default
  0.11244064E+003
  0.52404588E+002
  0.19556516E+002
  0.25948359E+002
  0.48011656E+002
  0.41314340E+002
  0.28826573E+002
  0.40632908E+002
  0.48082909E+002
VECTORS Vind_CP double
  0.17640124E-001 -0.98186441E-001 -0.47588837E+000
 -0.63415492E-001 -0.12160811E+000 -0.17935532E+000
 -0.33045395E-001 -0.76748252E-001 -0.16799689E-001
 -0.64844798E-001 -0.27472316E+000 -0.29174441E-001
 -0.14027020E+000 -0.55640873E+000  0.21230143E-001
 -0.11340469E+000 -0.41826170E+000  0.11787624E+000
 -0.60340776E-001 -0.17454187E+000  0.98108950E-001
 -0.61499336E-001 -0.16802738E+000  0.16230885E+000
 -0.10516548E+000 -0.67015338E-001  0.12673381E+000
VECTORS Vtot_CP double
  0.34967317E+002 -0.63787886E+001  0.26904762E+000
  0.64926019E+002 -0.15425837E+002  0.56285327E+000
  0.88774109E+002 -0.23201543E+002 -0.28229139E+000
  0.10478829E+003 -0.27401164E+002 -0.31264413E+000
  0.10978638E+003 -0.27907564E+002  0.15588525E+000
  0.10448898E+003 -0.26236306E+002  0.51153948E+000
  0.88689866E+002 -0.21928061E+002  0.75349906E+000
  0.65642755E+002 -0.14942806E+002  0.51095688E+000
  0.36883135E+002 -0.59592409E+001  0.12039964E+000
VECTORS Vstr_CP double
 -0.17749677E+002  0.62806022E+001 -0.74493599E+000
 -0.47789435E+002  0.15304229E+002 -0.74220859E+000
 -0.71607154E+002  0.23124795E+002  0.26549170E+000
 -0.87653132E+002  0.27126441E+002  0.28346969E+000
 -0.92726650E+002  0.27351155E+002 -0.13465511E+000
 -0.87402381E+002  0.25818044E+002 -0.39366323E+000
 -0.71550206E+002  0.21753519E+002 -0.65539011E+000
 -0.48504255E+002  0.14774779E+002 -0.34864803E+000
 -0.19788300E+002  0.58922256E+001  0.63341626E-002
VECTORS Vwnd_CP double
  0.17200000E+002  0.00000000E+000  0.00000000E+000
  0.17200000E+002  0.00000000E+000  0.00000000E+000
  0.17200000E+002  0.00000000E+000  0.00000000E+000
  0.17200000E+002  0.00000000E+000  0.00000000E+000
  0.17200000E+002  0.00000000E+000  0.00000000E+000
  0.17200000E+002  0.00000000E+000  0.00000000E+000
  0.17200000E+002  0.00000000E+000  0.00000000E+000
  0.17200000E+002  0.00000000E+000  0.00000000E+000
  0.17200000E+002  0.00000000E+000  0.00000000E+000
VECTORS Tangent double
  0.84528038E+000 -0.53432237E+000  0.83302660E-003
  0.95564612E+000 -0.29450916E+000 -0.22003120E-002
  0.96031320E+000 -0.27891825E+000 -0.17805946E-002
  0.96004267E+000 -0.27985324E+000 -0.47711376E-003
  0.95728327E+000 -0.28915174E+000 -0.11318737E-003
  0.95830372E+000 -0.28575152E+000 -0.23877141E-003
  0.95952824E+000 -0.28161241E+000 -0.11743946E-003
  0.95836658E+000 -0.28554069E+000  0.77550884E-004
  0.95802594E+000 -0.28665150E+000  0.41501746E-002
VECTORS Normal double
  0.28378602E+000  0.45026002E+000  0.84659991E+000
  0.18932319E+000  0.60857343E+000  0.77058102E+000
  0.19818629E+000  0.67783391E+000  0.70799956E+000
  0.25265400E+000  0.86599939E+000  0.43152175E+000
  0.28914579E+000  0.95726596E+000 -0.60498553E-002
  0.25698232E+000  0.86218737E+000 -0.43656961E+000
  0.19993202E+000  0.68151501E+000 -0.70396341E+000
  0.18285974E+000  0.61352757E+000 -0.76820976E+000
  0.15029780E+000  0.48988157E+000 -0.85873548E+000
VECTORS Orth double
  0.45273235E+000  0.71537789E+000 -0.53222918E+000
  0.22560412E+000  0.73681933E+000 -0.63733826E+000
  0.19626705E+000  0.68025422E+000 -0.70621062E+000
  0.12034958E+000  0.41439984E+000 -0.90210241E+000
 -0.18576766E-002 -0.57586976E-002 -0.99998169E+000
 -0.12495630E+000 -0.41830492E+000 -0.89967045E+000
 -0.19832487E+000 -0.67544929E+000 -0.71023623E+000
 -0.21930757E+000 -0.73624075E+000 -0.64019821E+000
 -0.24412472E+000 -0.82331462E+000 -0.51240234E+000
