# vtk DataFile Version 2.0
BldPointCP.BldA
ASCII
 
DATASET POLYDATA
POINTS 9 double
 -0.11393044E+002 -0.10301179E+001  0.10637715E+003
 -0.27971257E+002 -0.25367618E+001  0.94611610E+002
 -0.41174730E+002 -0.37442309E+001  0.82360545E+002
 -0.50107245E+002 -0.45659212E+001  0.70096609E+002
 -0.52997966E+002 -0.48337778E+001  0.58114393E+002
 -0.50108608E+002 -0.45710767E+001  0.46132840E+002
 -0.41176695E+002 -0.37502460E+001  0.33866888E+002
 -0.27978011E+002 -0.25400246E+001  0.21611401E+002
 -0.11414690E+002 -0.10345718E+001  0.98268407E+001
  
POINT_DATA 9
SCALARS Gamma_LL double
LOOKUP_TABLE default
 -0.17915563E+001
 -0.48619196E+002
 -0.42402214E+002
 -0.41280658E+002
 -0.42145739E+002
 -0.40220134E+002
 -0.41313394E+002
 -0.48317845E+002
 -0.24714688E+002
VECTORS Vind_CP double
  0.12584199E-001 -0.49259294E-001  0.12157485E-001
 -0.10188573E+000  0.32871040E-003  0.10363877E+000
 -0.10118858E+000 -0.39649735E-002  0.72812147E-001
 -0.14473937E+000 -0.77620254E-002  0.49638166E-001
 -0.18503131E+000 -0.10521203E-001  0.21397877E-003
 -0.14120170E+000 -0.88542239E-002 -0.47622886E-001
 -0.97555982E-001 -0.51088838E-002 -0.70081855E-001
 -0.10614944E+000 -0.37082640E-002 -0.10508269E+000
 -0.40682063E-001 -0.36696812E-002 -0.18112896E-001
VECTORS Vtot_CP double
  0.14419937E+002  0.20502202E+002 -0.92433459E+000
  0.12024926E+002  0.50931022E+002 -0.17229869E+001
  0.94005914E+001  0.75320633E+002 -0.14792357E+001
  0.73374066E+001  0.91946331E+002 -0.10616604E+001
  0.67075594E+001  0.97433360E+002 -0.10453379E+001
  0.74261829E+001  0.92093955E+002 -0.98970168E+000
  0.96523847E+001  0.75489585E+002 -0.47562346E+000
  0.12437981E+002  0.51031627E+002 -0.66791590E-001
  0.15291096E+002  0.20706595E+002 -0.46714826E-002
VECTORS Vstr_CP double
  0.27926476E+001 -0.20551461E+002  0.93649207E+000
  0.50731885E+001 -0.50930693E+002  0.18266257E+001
  0.76982200E+001 -0.75324598E+002  0.15520478E+001
  0.97178541E+001 -0.91954093E+002  0.11112986E+001
  0.10307409E+002 -0.97443882E+002  0.10455519E+001
  0.96326153E+001 -0.92102809E+002  0.94207880E+000
  0.74500593E+001 -0.75494694E+002  0.40554160E+000
  0.46558692E+001 -0.51035335E+002 -0.38291103E-001
  0.18682215E+001 -0.20710265E+002 -0.13441414E-001
VECTORS Vwnd_CP double
  0.17200000E+002  0.00000000E+000  0.00000000E+000
  0.17200000E+002  0.00000000E+000  0.00000000E+000
  0.17200000E+002  0.00000000E+000  0.00000000E+000
  0.17200000E+002  0.00000000E+000  0.00000000E+000
  0.17200000E+002  0.00000000E+000  0.00000000E+000
  0.17200000E+002  0.00000000E+000  0.00000000E+000
  0.17200000E+002  0.00000000E+000  0.00000000E+000
  0.17200000E+002  0.00000000E+000  0.00000000E+000
  0.17200000E+002  0.00000000E+000  0.00000000E+000
VECTORS Tangent double
 -0.77493845E+000  0.63203585E+000 -0.10397482E-002
 -0.93001388E-001  0.99566562E+000  0.84196664E-003
 -0.93337422E-001  0.99563398E+000  0.10509649E-002
 -0.91215748E-001  0.99583111E+000  0.28859230E-003
 -0.90032198E-001  0.99593882E+000 -0.25269769E-003
 -0.88952988E-001  0.99603528E+000 -0.10436450E-002
 -0.88450636E-001  0.99608034E+000 -0.66656181E-003
 -0.89080292E-001  0.99602445E+000  0.96832281E-005
 -0.89747524E-001  0.99596455E+000  0.43394370E-004
VECTORS Normal double
 -0.40903435E+000 -0.50026109E+000  0.76317084E+000
 -0.64215668E+000 -0.60627653E-001  0.76417216E+000
 -0.70820397E+000 -0.67133667E-001  0.70280880E+000
 -0.89241939E+000 -0.81872071E-001  0.44371679E+000
 -0.99593885E+000 -0.90032159E-001  0.16137089E-003
 -0.89254440E+000 -0.80175508E-001 -0.44377515E+000
 -0.70876235E+000 -0.63407337E-001 -0.70259194E+000
 -0.64273446E+000 -0.57476075E-001 -0.76392992E+000
 -0.50966145E+000 -0.45888753E-001 -0.85915041E+000
VECTORS Orth double
 -0.48183118E+000 -0.59183573E+000 -0.64619593E+000
 -0.76091100E+000 -0.70528397E-001 -0.64501179E+000
 -0.69981088E+000 -0.64854064E-001 -0.71137802E+000
 -0.44189061E+000 -0.40216413E-001 -0.89616702E+000
 -0.13796462E-003 -0.26620002E-003 -0.99999996E+000
  0.44209938E+000  0.38543626E-001 -0.89613756E+000
  0.69988028E+000  0.61672270E-001 -0.71159266E+000
  0.76089232E+000  0.68057324E-001 -0.64529922E+000
  0.85568136E+000  0.77128739E-001 -0.51172313E+000
