# vtk DataFile Version 2.0

ASCII
 
DATASET POLYDATA
POINTS 170 double
  0.28397492E+000  0.61641917E-001  0.11318085E+003
 -0.19679460E+002 -0.55195936E+001  0.10125089E+003
 -0.33723698E+002 -0.95064161E+001  0.89113506E+002
 -0.45187351E+002 -0.12851616E+002  0.76716026E+002
 -0.50930271E+002 -0.14551339E+002  0.64438251E+002
 -0.50943638E+002 -0.14572546E+002  0.52191174E+002
 -0.45185092E+002 -0.12884566E+002  0.39922970E+002
 -0.33712783E+002 -0.94928876E+001  0.27511854E+002
 -0.19793105E+002 -0.55363920E+001  0.15241246E+002
  0.16538931E-003  0.34381667E-004  0.30001913E+001
 -0.40502257E+001 -0.11466492E+001  0.11311202E+003
 -0.20884566E+002 -0.12751085E+001  0.10124641E+003
 -0.34584129E+002 -0.65314781E+001  0.89113090E+002
 -0.45834197E+002 -0.10482913E+002  0.76703340E+002
 -0.51498058E+002 -0.12368202E+002  0.64430766E+002
 -0.51524553E+002 -0.12347506E+002  0.52198803E+002
 -0.45844846E+002 -0.10369365E+002  0.39925621E+002
 -0.34604439E+002 -0.61853546E+001  0.27517918E+002
 -0.20978871E+002 -0.11954304E+001  0.15244418E+002
 -0.11997924E+001  0.43370940E+001  0.30041418E+001
 -0.39315435E+001 -0.10784977E+001  0.11313388E+003
 -0.20758245E+002 -0.88814100E+000  0.10124314E+003
 -0.34545668E+002 -0.58852628E+001  0.89084313E+002
 -0.45890433E+002 -0.96233464E+001  0.76682358E+002
 -0.51606770E+002 -0.11398748E+002  0.64406843E+002
 -0.51631968E+002 -0.11375844E+002  0.52167635E+002
 -0.45901723E+002 -0.95097359E+001  0.39892925E+002
 -0.34565093E+002 -0.55457902E+001  0.27494464E+002
 -0.20841058E+002 -0.80896476E+000  0.15232722E+002
 -0.95281407E+000  0.43577176E+001  0.30035330E+001
 -0.38102046E+001 -0.10094892E+001  0.11313539E+003
 -0.20620837E+002 -0.50214537E+000  0.10124159E+003
 -0.34494070E+002 -0.52378956E+001  0.89056105E+002
 -0.45932882E+002 -0.87609150E+001  0.76664378E+002
 -0.51701861E+002 -0.10425397E+002  0.64385740E+002
 -0.51721922E+002 -0.10400084E+002  0.52138289E+002
 -0.45943622E+002 -0.86464811E+001  0.39860088E+002
 -0.34512917E+002 -0.49039694E+001  0.27472161E+002
 -0.20693020E+002 -0.42246465E+000  0.15228559E+002
 -0.70446772E+000  0.43765419E+001  0.30077584E+001
 -0.36862557E+001 -0.93951588E+000  0.11311747E+003
 -0.20474111E+002 -0.11674747E+000  0.10122630E+003
 -0.34428378E+002 -0.45899344E+001  0.89027382E+002
 -0.45962075E+002 -0.78958602E+001  0.76649930E+002
 -0.51781479E+002 -0.94486207E+001  0.64367164E+002
 -0.51797966E+002 -0.94209849E+001  0.52108636E+002
 -0.45971637E+002 -0.77799885E+001  0.39826537E+002
 -0.34446815E+002 -0.42603835E+001  0.27452136E+002
 -0.20535946E+002 -0.36557688E-001  0.15223868E+002
 -0.45598219E+000  0.43938023E+001  0.30115600E+001
 -0.35598675E+001 -0.86880172E+000  0.11311865E+003
 -0.20316250E+002  0.26682915E+000  0.10122341E+003
 -0.34347415E+002 -0.39420010E+001  0.88997902E+002
 -0.45973878E+002 -0.70287718E+001  0.76636913E+002
 -0.51841826E+002 -0.84689803E+001  0.64349887E+002
 -0.51855270E+002 -0.84390718E+001  0.52080370E+002
 -0.45982066E+002 -0.69109482E+001  0.39794304E+002
 -0.34369216E+002 -0.36161923E+001  0.27432125E+002
 -0.20369563E+002  0.34837172E+000  0.15219427E+002
 -0.20744667E+000  0.44091609E+001  0.30194698E+001
 -0.34306209E+001 -0.79758848E+000  0.11311940E+003
 -0.20149897E+002  0.65008931E+000  0.10120796E+003
 -0.34255673E+002 -0.32950268E+001  0.88971743E+002
 -0.45965202E+002 -0.61603308E+001  0.76623686E+002
 -0.51881104E+002 -0.74869917E+001  0.64334484E+002
 -0.51891835E+002 -0.74549066E+001  0.52053354E+002
 -0.45971646E+002 -0.60401237E+001  0.39765481E+002
 -0.34274991E+002 -0.29714560E+001  0.27417608E+002
 -0.20193995E+002  0.73222259E+000  0.15217083E+002
  0.41119556E-001  0.44227701E+001  0.30280592E+001
 -0.32984015E+001 -0.72541827E+000  0.11311980E+003
 -0.19973056E+002  0.10313107E+001  0.10119423E+003
 -0.34145990E+002 -0.26492624E+001  0.88942532E+002
 -0.45928931E+002 -0.52919515E+001  0.76606416E+002
 -0.51889788E+002 -0.65038606E+001  0.64318309E+002
 -0.51900502E+002 -0.64694437E+001  0.52029113E+002
 -0.45937229E+002 -0.51684218E+001  0.39741766E+002
 -0.34163716E+002 -0.23266764E+001  0.27407850E+002
 -0.20009509E+002  0.11150109E+001  0.15215321E+002
  0.28978113E+000  0.44345843E+001  0.30336152E+001
 -0.31629419E+001 -0.65207065E+000  0.11312020E+003
 -0.19785176E+002  0.14104547E+001  0.10117792E+003
 -0.34019246E+002 -0.20049029E+001  0.88911235E+002
 -0.45875513E+002 -0.44241947E+001  0.76593684E+002
 -0.51865216E+002 -0.55206298E+001  0.64302381E+002
 -0.51874393E+002 -0.54841448E+001  0.52008945E+002
 -0.45881767E+002 -0.42974688E+001  0.39719223E+002
 -0.34031435E+002 -0.16821311E+001  0.27407690E+002
 -0.19815649E+002  0.14962157E+001  0.15215651E+002
  0.53873072E+000  0.44448621E+001  0.30375799E+001
 -0.30240427E+001 -0.57676738E+000  0.11312005E+003
 -0.19589593E+002  0.17880444E+001  0.10113913E+003
 -0.33874860E+002 -0.13625455E+001  0.88878028E+002
 -0.45797372E+002 -0.35580810E+001  0.76578522E+002
 -0.51800595E+002 -0.45392917E+001  0.64284941E+002
 -0.51808708E+002 -0.45008282E+001  0.51994260E+002
 -0.45800429E+002 -0.34280553E+001  0.39703453E+002
 -0.33880982E+002 -0.10393258E+001  0.27412888E+002
 -0.19616610E+002  0.18753572E+001  0.15211658E+002
  0.78814252E+000  0.44537931E+001  0.30419018E+001
 -0.28813527E+001 -0.50029243E+000  0.11312240E+003
 -0.19400814E+002  0.21644127E+001  0.10111695E+003
 -0.33709130E+002 -0.72239735E+000  0.88838611E+002
 -0.45690831E+002 -0.26938818E+001  0.76559058E+002
 -0.51701912E+002 -0.35615698E+001  0.64268746E+002
 -0.51708595E+002 -0.35213089E+001  0.51982527E+002
 -0.45691417E+002 -0.25605963E+001  0.39695592E+002
 -0.33714296E+002 -0.39825335E+000  0.27423545E+002
 -0.19416119E+002  0.22532006E+001  0.15200202E+002
  0.10381407E+001  0.44615327E+001  0.30455023E+001
 -0.27345754E+001 -0.42270681E+000  0.11312368E+003
 -0.19186554E+002  0.25393061E+001  0.10106340E+003
 -0.33527929E+002 -0.84845283E-001  0.88799495E+002
 -0.45556838E+002 -0.18324008E+001  0.76536450E+002
 -0.51566297E+002 -0.25883572E+001  0.64251533E+002
 -0.51575082E+002 -0.25465557E+001  0.51976264E+002
 -0.45549872E+002 -0.16959427E+001  0.39700525E+002
 -0.33531817E+002  0.24061202E+000  0.27437618E+002
 -0.19195920E+002  0.26304784E+001  0.15208315E+002
  0.12887752E+001  0.44677280E+001  0.30493066E+001
 -0.25834693E+001 -0.34410216E+000  0.11312520E+003
 -0.18963305E+002  0.29126081E+001  0.10101949E+003
 -0.33332856E+002  0.55035675E+000  0.88762950E+002
 -0.45392399E+002 -0.97416333E+000  0.76506122E+002
 -0.51406942E+002 -0.16198994E+001  0.64234820E+002
 -0.51410681E+002 -0.15767846E+001  0.51974793E+002
 -0.45385465E+002 -0.83478616E+000  0.39710886E+002
 -0.33335391E+002  0.87724437E+000  0.27454930E+002
 -0.18968338E+002  0.30059303E+001  0.15217242E+002
  0.15403292E+001  0.44734386E+001  0.30516727E+001
 -0.24278751E+001 -0.26456456E+000  0.11312651E+003
 -0.18733124E+002  0.32858651E+001  0.10097932E+003
 -0.33125222E+002  0.11832615E+001  0.88729667E+002
 -0.45208648E+002 -0.11906265E+000  0.76477388E+002
 -0.51223634E+002 -0.65510723E+000  0.64219747E+002
 -0.51225999E+002 -0.61115706E+000  0.51976333E+002
 -0.45202473E+002  0.22845613E-001  0.39724248E+002
 -0.33126416E+002  0.15115819E+001  0.27473009E+002
 -0.18734325E+002  0.33801449E+001  0.15224016E+002
  0.17920579E+001  0.44778171E+001  0.30543499E+001
 -0.22675074E+001 -0.18437101E+000  0.11312687E+003
 -0.18493674E+002  0.36568991E+001  0.10094393E+003
 -0.32905526E+002  0.18138815E+001  0.88701501E+002
 -0.45004705E+002  0.73270570E+000  0.76451010E+002
 -0.51027132E+002  0.30679057E+000  0.64208352E+002
 -0.51028354E+002  0.35109494E+000  0.51979570E+002
 -0.45000564E+002  0.87682028E+000  0.39740408E+002
 -0.32906336E+002  0.21435441E+001  0.27490345E+002
 -0.18492458E+002  0.37518725E+001  0.15225645E+002
  0.20439239E+001  0.44807431E+001  0.30576767E+001
 -0.21020626E+001 -0.10370497E+000  0.11312616E+003
 -0.18249047E+002  0.40265495E+001  0.10089916E+003
 -0.32678478E+002  0.24427082E+001  0.88682075E+002
 -0.44788102E+002  0.15815828E+001  0.76431076E+002
 -0.50812327E+002  0.12654485E+001  0.64198965E+002
 -0.50813294E+002  0.13097512E+001  0.51985496E+002
 -0.44785690E+002  0.17271927E+001  0.39755465E+002
 -0.32692844E+002  0.27753392E+001  0.27488327E+002
 -0.18244714E+002  0.41221714E+001  0.15237525E+002
  0.22957352E+001  0.44826723E+001  0.30597404E+001
 -0.19324680E+001 -0.22907896E-001  0.11312488E+003
 -0.17997160E+002  0.43962366E+001  0.10087532E+003
 -0.32459854E+002  0.30731191E+001  0.88686846E+002
 -0.44561467E+002  0.24287154E+001  0.76416995E+002
 -0.50591662E+002  0.22226163E+001  0.64193859E+002
 -0.50591482E+002  0.22667014E+001  0.51989963E+002
 -0.44558806E+002  0.25748222E+001  0.39767678E+002
 -0.32461062E+002  0.34043301E+001  0.27491615E+002
 -0.17990165E+002  0.44907265E+001  0.15244481E+002
  0.25474066E+001  0.44832397E+001  0.30619261E+001
  
POLYGONS 144 720
      4      0      1     11     10
      4      1      2     12     11
      4      2      3     13     12
      4      3      4     14     13
      4      4      5     15     14
      4      5      6     16     15
      4      6      7     17     16
      4      7      8     18     17
      4      8      9     19     18
      4     10     11     21     20
      4     11     12     22     21
      4     12     13     23     22
      4     13     14     24     23
      4     14     15     25     24
      4     15     16     26     25
      4     16     17     27     26
      4     17     18     28     27
      4     18     19     29     28
      4     20     21     31     30
      4     21     22     32     31
      4     22     23     33     32
      4     23     24     34     33
      4     24     25     35     34
      4     25     26     36     35
      4     26     27     37     36
      4     27     28     38     37
      4     28     29     39     38
      4     30     31     41     40
      4     31     32     42     41
      4     32     33     43     42
      4     33     34     44     43
      4     34     35     45     44
      4     35     36     46     45
      4     36     37     47     46
      4     37     38     48     47
      4     38     39     49     48
      4     40     41     51     50
      4     41     42     52     51
      4     42     43     53     52
      4     43     44     54     53
      4     44     45     55     54
      4     45     46     56     55
      4     46     47     57     56
      4     47     48     58     57
      4     48     49     59     58
      4     50     51     61     60
      4     51     52     62     61
      4     52     53     63     62
      4     53     54     64     63
      4     54     55     65     64
      4     55     56     66     65
      4     56     57     67     66
      4     57     58     68     67
      4     58     59     69     68
      4     60     61     71     70
      4     61     62     72     71
      4     62     63     73     72
      4     63     64     74     73
      4     64     65     75     74
      4     65     66     76     75
      4     66     67     77     76
      4     67     68     78     77
      4     68     69     79     78
      4     70     71     81     80
      4     71     72     82     81
      4     72     73     83     82
      4     73     74     84     83
      4     74     75     85     84
      4     75     76     86     85
      4     76     77     87     86
      4     77     78     88     87
      4     78     79     89     88
      4     80     81     91     90
      4     81     82     92     91
      4     82     83     93     92
      4     83     84     94     93
      4     84     85     95     94
      4     85     86     96     95
      4     86     87     97     96
      4     87     88     98     97
      4     88     89     99     98
      4     90     91    101    100
      4     91     92    102    101
      4     92     93    103    102
      4     93     94    104    103
      4     94     95    105    104
      4     95     96    106    105
      4     96     97    107    106
      4     97     98    108    107
      4     98     99    109    108
      4    100    101    111    110
      4    101    102    112    111
      4    102    103    113    112
      4    103    104    114    113
      4    104    105    115    114
      4    105    106    116    115
      4    106    107    117    116
      4    107    108    118    117
      4    108    109    119    118
      4    110    111    121    120
      4    111    112    122    121
      4    112    113    123    122
      4    113    114    124    123
      4    114    115    125    124
      4    115    116    126    125
      4    116    117    127    126
      4    117    118    128    127
      4    118    119    129    128
      4    120    121    131    130
      4    121    122    132    131
      4    122    123    133    132
      4    123    124    134    133
      4    124    125    135    134
      4    125    126    136    135
      4    126    127    137    136
      4    127    128    138    137
      4    128    129    139    138
      4    130    131    141    140
      4    131    132    142    141
      4    132    133    143    142
      4    133    134    144    143
      4    134    135    145    144
      4    135    136    146    145
      4    136    137    147    146
      4    137    138    148    147
      4    138    139    149    148
      4    140    141    151    150
      4    141    142    152    151
      4    142    143    153    152
      4    143    144    154    153
      4    144    145    155    154
      4    145    146    156    155
      4    146    147    157    156
      4    147    148    158    157
      4    148    149    159    158
      4    150    151    161    160
      4    151    152    162    161
      4    152    153    163    162
      4    153    154    164    163
      4    154    155    165    164
      4    155    156    166    165
      4    156    157    167    166
      4    157    158    168    167
      4    158    159    169    168
  
CELL_DATA 144
SCALARS Gamma double
LOOKUP_TABLE default
 -0.44759924E+001
 -0.15906434E+003
 -0.14393031E+003
 -0.11214943E+003
 -0.95053052E+002
 -0.87378484E+002
 -0.10317547E+003
 -0.14113658E+003
 -0.62870055E+002
 -0.44759924E+001
 -0.15906434E+003
 -0.14393031E+003
 -0.11214943E+003
 -0.95053052E+002
 -0.87378484E+002
 -0.10317547E+003
 -0.14113658E+003
 -0.62870055E+002
 -0.45978567E+001
 -0.15980132E+003
 -0.14411729E+003
 -0.11440126E+003
 -0.99974593E+002
 -0.92543669E+002
 -0.10746903E+003
 -0.14353039E+003
 -0.65020927E+002
 -0.47285441E+001
 -0.16045162E+003
 -0.14419142E+003
 -0.11671544E+003
 -0.10500911E+003
 -0.97698906E+002
 -0.11170522E+003
 -0.14576098E+003
 -0.67200707E+002
 -0.48659957E+001
 -0.16100426E+003
 -0.14412127E+003
 -0.11908272E+003
 -0.11019902E+003
 -0.10289716E+003
 -0.11562099E+003
 -0.14786472E+003
 -0.69415513E+002
 -0.50095155E+001
 -0.16144714E+003
 -0.14392381E+003
 -0.12148782E+003
 -0.11515820E+003
 -0.10810995E+003
 -0.11885418E+003
 -0.14990370E+003
 -0.71660577E+002
 -0.51494908E+001
 -0.16153997E+003
 -0.14340084E+003
 -0.12383816E+003
 -0.11906972E+003
 -0.11311480E+003
 -0.12183001E+003
 -0.15165461E+003
 -0.73803696E+002
 -0.51346537E+001
 -0.15665929E+003
 -0.13846815E+003
 -0.12263195E+003
 -0.11920674E+003
 -0.11390880E+003
 -0.12094731E+003
 -0.14870566E+003
 -0.73654135E+002
 -0.46587266E+001
 -0.13835549E+003
 -0.12171970E+003
 -0.11050393E+003
 -0.10856606E+003
 -0.10380919E+003
 -0.10921629E+003
 -0.13273300E+003
 -0.66919081E+002
 -0.38266154E+001
 -0.11048758E+003
 -0.96801330E+002
 -0.90032760E+002
 -0.89688879E+002
 -0.85493586E+002
 -0.89374969E+002
 -0.10715760E+003
 -0.54436325E+002
 -0.28342566E+001
 -0.79388323E+002
 -0.69385444E+002
 -0.66057483E+002
 -0.66650169E+002
 -0.63428619E+002
 -0.65857825E+002
 -0.77955958E+002
 -0.39714610E+002
 -0.17915563E+001
 -0.48619196E+002
 -0.42402214E+002
 -0.41280658E+002
 -0.42145739E+002
 -0.40220134E+002
 -0.41313394E+002
 -0.48317845E+002
 -0.24714688E+002
 -0.81856091E+000
 -0.21541708E+002
 -0.18744617E+002
 -0.18631326E+002
 -0.19216129E+002
 -0.18418026E+002
 -0.18723285E+002
 -0.21655029E+002
 -0.11135103E+002
 -0.16983547E+000
 -0.43158211E+001
 -0.37588562E+001
 -0.38076947E+001
 -0.39630860E+001
 -0.38217750E+001
 -0.38456670E+001
 -0.43977668E+001
 -0.22764939E+001
 -0.20358333E-002
 -0.50129804E-001
 -0.43769850E-001
 -0.45116199E-001
 -0.47341231E-001
 -0.45934438E-001
 -0.45782683E-001
 -0.51804677E-001
 -0.27059359E-001
 -0.00000000E+000
 -0.00000000E+000
 -0.00000000E+000
 -0.00000000E+000
 -0.00000000E+000
 -0.00000000E+000
 -0.00000000E+000
 -0.00000000E+000
 -0.00000000E+000
POINT_DATA 170
VECTORS Uconv double
  0.00000000E+000  0.00000000E+000  0.00000000E+000
  0.00000000E+000  0.00000000E+000  0.00000000E+000
  0.00000000E+000  0.00000000E+000  0.00000000E+000
  0.00000000E+000  0.00000000E+000  0.00000000E+000
  0.00000000E+000  0.00000000E+000  0.00000000E+000
  0.00000000E+000  0.00000000E+000  0.00000000E+000
  0.00000000E+000  0.00000000E+000  0.00000000E+000
  0.00000000E+000  0.00000000E+000  0.00000000E+000
  0.00000000E+000  0.00000000E+000  0.00000000E+000
  0.00000000E+000  0.00000000E+000  0.00000000E+000
  0.00000000E+000  0.00000000E+000  0.00000000E+000
  0.00000000E+000  0.00000000E+000  0.00000000E+000
  0.00000000E+000  0.00000000E+000  0.00000000E+000
  0.00000000E+000  0.00000000E+000  0.00000000E+000
  0.00000000E+000  0.00000000E+000  0.00000000E+000
  0.00000000E+000  0.00000000E+000  0.00000000E+000
  0.00000000E+000  0.00000000E+000  0.00000000E+000
  0.00000000E+000  0.00000000E+000  0.00000000E+000
  0.00000000E+000  0.00000000E+000  0.00000000E+000
  0.00000000E+000  0.00000000E+000  0.00000000E+000
  0.17125991E+002 -0.26936557E+000  0.14722820E+001
  0.16088268E+002  0.42098865E+000  0.27214032E+001
  0.15270374E+002  0.26291839E+000  0.18338326E+001
  0.15458262E+002  0.38941828E-001  0.10724852E+001
  0.15452122E+002  0.36412448E-002  0.30567359E+000
  0.15402656E+002 -0.11909893E-002 -0.28659360E+000
  0.15796506E+002  0.76379480E-002 -0.80010747E+000
  0.15538646E+002  0.16448746E+000 -0.15752778E+001
  0.15884226E+002  0.35808786E+000 -0.10977531E+001
  0.16899940E+002 -0.20300919E-001 -0.10666497E-001
  0.17150592E+002 -0.26932511E+000 -0.52013202E+000
  0.16219435E+002  0.36829887E+000  0.28331275E+001
  0.15291976E+002  0.27187491E+000  0.18148526E+001
  0.15487172E+002  0.37854937E-001  0.10604220E+001
  0.15178560E+002 -0.69689976E-003  0.34474531E+000
  0.15292322E+002 -0.18685442E-002 -0.24267934E+000
  0.15821395E+002  0.34878500E-002 -0.79937652E+000
  0.15541478E+002  0.17757717E+000 -0.15710513E+001
  0.15971910E+002  0.33763608E+000 -0.60377868E+000
  0.16899760E+002 -0.40924097E-001  0.29205448E-001
  0.17142619E+002 -0.26782567E+000 -0.53412509E+000
  0.16289737E+002  0.33103310E+000  0.17129136E+001
  0.15347098E+002  0.27261147E+000  0.17445337E+001
  0.15416436E+002  0.44983034E-001  0.10977951E+001
  0.14904822E+002  0.90055316E-003  0.38232012E+000
  0.15021815E+002 -0.13438037E-002 -0.27811454E+000
  0.15731731E+002  0.70465703E-002 -0.85669626E+000
  0.15573996E+002  0.18617622E+000 -0.15375926E+001
  0.16055776E+002  0.31188724E+000 -0.37925537E+000
  0.16898972E+002 -0.64040571E-001  0.69976222E-001
  0.17137242E+002 -0.26991895E+000 -0.54980648E+000
  0.16393581E+002  0.28315272E+000  0.15211189E+001
  0.15438052E+002  0.26449286E+000  0.16563288E+001
  0.15381203E+002  0.52822749E-001  0.11102818E+001
  0.14795038E+002  0.34944804E-002  0.35149781E+000
  0.14895105E+002  0.26664308E-002 -0.26012447E+000
  0.15664360E+002  0.12987760E-001 -0.89901945E+000
  0.15263388E+002  0.13893640E+000 -0.18349802E+001
  0.16144202E+002  0.27391034E+000 -0.35669234E+000
  0.16896769E+002 -0.58767955E-001  0.74385302E-001
  0.17131615E+002 -0.27205526E+000 -0.56594039E+000
  0.16473119E+002  0.23113307E+000  0.13300904E+001
  0.15062380E+002  0.20873998E+000  0.20119826E+001
  0.15393175E+002  0.59418029E-001  0.10902879E+001
  0.14647359E+002  0.16509913E-001  0.36846714E+000
  0.14742724E+002  0.15673227E-001 -0.28536870E+000
  0.15630949E+002  0.20772651E-001 -0.91825753E+000
  0.15377917E+002  0.14586020E+000 -0.17184826E+001
  0.16228721E+002  0.23571243E+000 -0.31721295E+000
  0.16894012E+002 -0.71150826E-001  0.11083889E+000
  0.17125689E+002 -0.27418875E+000 -0.58263447E+000
  0.16548701E+002  0.18549904E+000  0.11860673E+001
  0.15245754E+002  0.19537138E+000  0.18249268E+001
  0.15461396E+002  0.59936257E-001  0.10325481E+001
  0.14621550E+002  0.32593354E-001  0.37291166E+000
  0.14710529E+002  0.31393608E-001 -0.30244827E+000
  0.15648690E+002  0.25934998E-001 -0.90403594E+000
  0.15528479E+002  0.14180683E+000 -0.15669929E+001
  0.16301509E+002  0.20087463E+000 -0.33105514E+000
  0.16890687E+002 -0.82184395E-001  0.14704386E+000
  0.17119233E+002 -0.27595726E+000 -0.59751711E+000
  0.16619674E+002  0.13961837E+000  0.10335347E+001
  0.15465518E+002  0.16452039E+000  0.16048013E+001
  0.14915461E+002  0.88239532E-002  0.15727013E+001
  0.14751464E+002  0.42462081E-001  0.36273968E+000
  0.14831575E+002  0.40843467E-001 -0.30686222E+000
  0.15191339E+002 -0.26387916E-001 -0.13611044E+001
  0.15710334E+002  0.12314449E+000 -0.13850292E+001
  0.16376412E+002  0.16329193E+000 -0.32166996E+000
  0.16886716E+002 -0.91682600E-001  0.18087164E+000
  0.17112595E+002 -0.27809256E+000 -0.61452880E+000
  0.16690289E+002  0.72718832E-001  0.88033640E+000
  0.15712461E+002  0.12187412E+000  0.13893144E+001
  0.15143110E+002  0.60070709E-002  0.13946026E+001
  0.15040802E+002  0.33996577E-001  0.34284115E+000
  0.15107193E+002  0.31855415E-001 -0.29106677E+000
  0.15359534E+002 -0.23781316E-001 -0.12358863E+001
  0.15924621E+002  0.89494422E-001 -0.12134322E+001
  0.16447733E+002  0.12826063E+000 -0.31794891E+000
  0.16881128E+002 -0.10206231E+000  0.25699352E+000
  0.17105568E+002 -0.27996781E+000 -0.63178614E+000
  0.16680581E+002  0.56627956E-001  0.47157217E+000
  0.15970936E+002  0.63059655E-001  0.11276735E+001
  0.15436170E+002 -0.12466844E-001  0.11702814E+001
  0.15463804E+002  0.14204918E-002  0.30154420E+000
  0.15514897E+002  0.40857198E-003 -0.26365513E+000
  0.15595874E+002 -0.32775709E-001 -0.10604963E+001
  0.16142462E+002  0.46948057E-001 -0.98776479E+000
  0.16512189E+002  0.99195908E-001 -0.26688417E+000
  0.16875878E+002 -0.11093207E+000  0.28463886E+000
  0.17098132E+002 -0.28193101E+000 -0.64942254E+000
  0.16732647E+002 -0.17180317E-001  0.18859275E+000
  0.16234831E+002 -0.50924025E-002  0.86044604E+000
  0.15779136E+002 -0.47660280E-001  0.93010679E+000
  0.15970697E+002 -0.59245033E-001  0.24687780E+000
  0.16004307E+002 -0.56282828E-001 -0.22024549E+000
  0.15889312E+002 -0.59628074E-001 -0.85460816E+000
  0.16368561E+002 -0.53343795E-002 -0.75622741E+000
  0.16565134E+002  0.77924665E-001 -0.31176286E+000
  0.16869673E+002 -0.11761704E+000  0.31403876E+000
  0.17091320E+002 -0.28580940E+000 -0.66983300E+000
  0.16789127E+002 -0.80059737E-001 -0.99174428E-001
  0.16498220E+002 -0.78235351E-001  0.61434820E+000
  0.16148879E+002 -0.10141978E+000  0.65258703E+000
  0.16504421E+002 -0.13726138E+000  0.18468240E+000
  0.16520041E+002 -0.13349350E+000 -0.16310772E+000
  0.16214679E+002 -0.10032489E+000 -0.61438086E+000
  0.16594390E+002 -0.64248459E-001 -0.52384246E+000
  0.16612889E+002  0.42183067E-001 -0.27763154E+000
  0.16862850E+002 -0.14181943E+000  0.37845148E+000
  0.17082522E+002 -0.28689993E+000 -0.68777470E+000
  0.16798357E+002 -0.11991404E+000 -0.49905405E+000
  0.16748257E+002 -0.15365935E+000  0.35418867E+000
  0.16516548E+002 -0.16268597E+000  0.37696186E+000
  0.17004037E+002 -0.22315721E+000  0.11138931E+000
  0.17003234E+002 -0.21640354E+000 -0.92456678E-001
  0.16546367E+002 -0.14997222E+000 -0.36908288E+000
  0.16814545E+002 -0.12698078E+000 -0.29666219E+000
  0.16633641E+002  0.26593286E-001 -0.15941426E+000
  0.16854847E+002 -0.14233379E+000  0.40262675E+000
  0.17073376E+002 -0.28833409E+000 -0.70619524E+000
  0.16845266E+002 -0.16151552E+000 -0.73688304E+000
  0.16983257E+002 -0.22790964E+000  0.10965895E+000
  0.16855941E+002 -0.22585496E+000  0.12222869E+000
  0.17416111E+002 -0.29937568E+000  0.38994495E-001
  0.17402325E+002 -0.28960524E+000 -0.24668661E-001
  0.16835520E+002 -0.20076877E+000 -0.14771715E+000
  0.17026961E+002 -0.19138426E+000 -0.91299938E-001
  0.16697050E+002 -0.10111540E-001 -0.18823030E+000
  0.16845234E+002 -0.14308789E+000  0.43016359E+000
  0.17063371E+002 -0.28914523E+000 -0.72905537E+000
  0.16836257E+002 -0.18167180E+000 -0.10215032E+001
  0.17197512E+002 -0.29536958E+000 -0.10410062E+000
  0.17148683E+002 -0.28158155E+000 -0.82819817E-001
  0.17714269E+002 -0.35875860E+000 -0.24209153E-001
  0.17659854E+002 -0.34601955E+000  0.19874867E-001
  0.17110220E+002 -0.25038340E+000  0.49050980E-001
  0.17219809E+002 -0.24346981E+000  0.11457474E+000
  0.16739419E+002 -0.35855177E-001 -0.20655389E+000
  0.16835271E+002 -0.14942204E+000  0.48200397E+000
  0.17052955E+002 -0.30045347E+000 -0.74310526E+000
  0.16887148E+002 -0.20439845E+000 -0.11328278E+001
  0.17390257E+002 -0.34670813E+000 -0.31210194E+000
  0.17380619E+002 -0.32625490E+000 -0.26179996E+000
  0.17891760E+002 -0.39451017E+000 -0.73674012E-001
  0.17841546E+002 -0.38197055E+000  0.69483363E-001
  0.17331534E+002 -0.29154469E+000  0.21663348E+000
  0.17396363E+002 -0.29773339E+000  0.27152949E+000
  0.16779453E+002 -0.60142818E-001 -0.20490219E+000
  0.16824490E+002 -0.14860350E+000  0.50513438E+000
