# vtk DataFile Version 2.0
BldPointCP.BldA
ASCII
 
DATASET POLYDATA
POINTS 9 double
 -0.11437672E+002 -0.61866472E+000  0.10636192E+003
 -0.28050058E+002 -0.15201156E+001  0.94582253E+002
 -0.41295537E+002 -0.22412097E+001  0.82336553E+002
 -0.50262235E+002 -0.27312459E+001  0.70079809E+002
 -0.53161913E+002 -0.28903717E+001  0.58098258E+002
 -0.50261977E+002 -0.27331840E+001  0.46117104E+002
 -0.41295329E+002 -0.22440072E+001  0.33859725E+002
 -0.28051832E+002 -0.15216881E+001  0.21612548E+002
 -0.11444561E+002 -0.62022455E+000  0.98272111E+001
  
POINT_DATA 9
SCALARS Gamma_LL double
LOOKUP_TABLE default
 -0.16983547E+000
 -0.43158211E+001
 -0.37588562E+001
 -0.38076947E+001
 -0.39630860E+001
 -0.38217750E+001
 -0.38456670E+001
 -0.43977668E+001
 -0.22764939E+001
VECTORS Vind_CP double
  0.22655886E-003 -0.32091396E-002 -0.53035738E-003
 -0.89155150E-002  0.41047805E-004  0.87845648E-002
 -0.81011441E-002 -0.20725904E-003  0.57872406E-002
 -0.11814059E-001 -0.39962143E-003  0.40842058E-002
 -0.15529422E-001 -0.53002543E-003 -0.13431588E-004
 -0.11969216E-001 -0.48471793E-003 -0.41872687E-002
 -0.82217100E-002 -0.29634689E-003 -0.59916365E-002
 -0.91499954E-002 -0.17377754E-003 -0.90871394E-002
 -0.34243303E-002 -0.28993197E-003 -0.14976059E-002
VECTORS Vtot_CP double
  0.15536747E+002  0.20609887E+002 -0.53765568E+000
  0.14148436E+002  0.50878086E+002 -0.10111663E+001
  0.12590872E+002  0.75112584E+002 -0.83627584E+000
  0.11413876E+002  0.91536540E+002 -0.59924034E+000
  0.11061915E+002  0.96898170E+002 -0.57096356E+000
  0.11445390E+002  0.91632122E+002 -0.53759437E+000
  0.12731020E+002  0.75240217E+002 -0.21660308E+000
  0.14408180E+002  0.50957737E+002  0.48382144E-001
  0.16078595E+002  0.20700943E+002  0.13160111E-001
VECTORS Vstr_CP double
  0.16634793E+001 -0.20613096E+002  0.53712533E+000
  0.30426481E+001 -0.50878045E+002  0.10199508E+001
  0.46010265E+001 -0.75112791E+002  0.84206308E+000
  0.57743103E+001 -0.91536939E+002  0.60332455E+000
  0.61225553E+001 -0.96898700E+002  0.57095013E+000
  0.57426407E+001 -0.91632607E+002  0.53340710E+000
  0.44607582E+001 -0.75240513E+002  0.21061144E+000
  0.27826704E+001 -0.50957911E+002 -0.57469284E-001
  0.11179811E+001 -0.20701233E+002 -0.14657717E-001
VECTORS Vwnd_CP double
  0.17200000E+002  0.00000000E+000  0.00000000E+000
  0.17200000E+002  0.00000000E+000  0.00000000E+000
  0.17200000E+002  0.00000000E+000  0.00000000E+000
  0.17200000E+002  0.00000000E+000  0.00000000E+000
  0.17200000E+002  0.00000000E+000  0.00000000E+000
  0.17200000E+002  0.00000000E+000  0.00000000E+000
  0.17200000E+002  0.00000000E+000  0.00000000E+000
  0.17200000E+002  0.00000000E+000  0.00000000E+000
  0.17200000E+002  0.00000000E+000  0.00000000E+000
VECTORS Tangent double
 -0.75126753E+000  0.65999778E+000 -0.12613688E-003
 -0.55814262E-001  0.99844096E+000  0.64166283E-003
 -0.56231874E-001  0.99841738E+000  0.84576231E-003
 -0.55239705E-001  0.99847306E+000  0.36283840E-003
 -0.54626349E-001  0.99850685E+000 -0.19033096E-003
 -0.53887361E-001  0.99854667E+000 -0.83962709E-003
 -0.53401342E-001  0.99857298E+000 -0.55059781E-003
 -0.53650733E-001  0.99855976E+000 -0.49604514E-004
 -0.53962642E-001  0.99854296E+000 -0.23910105E-005
VECTORS Normal double
 -0.42752026E+000 -0.48649555E+000  0.76193733E+000
 -0.64418835E+000 -0.36502033E-001  0.76399540E+000
 -0.70936166E+000 -0.40548052E-001  0.70367740E+000
 -0.89465841E+000 -0.49657585E-001  0.44398250E+000
 -0.99850687E+000 -0.54626346E-001  0.22199838E-004
 -0.89467562E+000 -0.48655265E-001 -0.44405878E+000
 -0.70958150E+000 -0.38334699E-001 -0.70357981E+000
 -0.64438046E+000 -0.34659295E-001 -0.76391921E+000
 -0.51100619E+000 -0.27617538E-001 -0.85913325E+000
VECTORS Orth double
 -0.50281559E+000 -0.57247271E+000 -0.64765074E+000
 -0.76282772E+000 -0.42228488E-001 -0.64522137E+000
 -0.70259804E+000 -0.38969148E-001 -0.71051910E+000
 -0.44332258E+000 -0.24200846E-001 -0.89603538E+000
 -0.11769606E-004 -0.19125947E-003 -0.99999998E+000
  0.44345426E+000  0.23177962E-001 -0.89599726E+000
  0.70259689E+000  0.37181412E-001 -0.71061604E+000
  0.76282070E+000  0.40952861E-001 -0.64531189E+000
  0.85788152E+000  0.46359878E-001 -0.51175194E+000
