# vtk DataFile Version 2.0
BldPointCP.BldB
ASCII
 
DATASET POLYDATA
POINTS 9 double
  0.30487268E+001  0.11137670E+002  0.10626442E+003
  0.71025335E+001  0.27302810E+002  0.94499981E+002
  0.10391314E+002  0.40266949E+002  0.82387490E+002
  0.12603150E+002  0.48909371E+002  0.70123276E+002
  0.13302792E+002  0.51582270E+002  0.58082002E+002
  0.12598890E+002  0.48772995E+002  0.46060944E+002
  0.10377869E+002  0.40132455E+002  0.33773757E+002
  0.70490950E+001  0.27245255E+002  0.21578783E+002
  0.28720071E+001  0.11096254E+002  0.98392103E+001
  
POINT_DATA 9
SCALARS Gamma_LL double
LOOKUP_TABLE default
  0.10970619E+003
  0.50424130E+002
  0.19104853E+002
  0.21197282E+002
  0.41840007E+002
  0.36112826E+002
  0.25374825E+002
  0.35722205E+002
  0.42739685E+002
VECTORS Vind_CP double
 -0.77440879E-003 -0.10659672E+000 -0.47014716E+000
 -0.68771941E-001 -0.14374095E+000 -0.20173292E+000
 -0.41312357E-001 -0.97255710E-001 -0.33523574E-001
 -0.63576555E-001 -0.25786260E+000 -0.22966090E-001
 -0.11953076E+000 -0.51514293E+000  0.26979103E-001
 -0.11397014E+000 -0.41431446E+000  0.12021287E+000
 -0.67747121E-001 -0.19578314E+000  0.11204722E+000
 -0.61447859E-001 -0.17764632E+000  0.16907264E+000
 -0.11329993E+000 -0.68102866E-001  0.11693303E+000
VECTORS Vtot_CP double
  0.34954197E+002 -0.57049557E+001  0.21916536E+000
  0.65365637E+002 -0.13527204E+002  0.59783528E+000
  0.89661278E+002 -0.20356027E+002 -0.86722773E-001
  0.10584938E+003 -0.24192046E+002 -0.19781754E+000
  0.11079582E+003 -0.24666616E+002  0.15351118E+000
  0.10540407E+003 -0.23085112E+002  0.42433991E+000
  0.89477960E+002 -0.19220382E+002  0.61247539E+000
  0.66173467E+002 -0.13115190E+002  0.45325981E+000
  0.37075356E+002 -0.52439784E+001  0.12435896E+000
VECTORS Vstr_CP double
 -0.17754971E+002  0.55983589E+001 -0.68931253E+000
 -0.48234409E+002  0.13383463E+002 -0.79956820E+000
 -0.72502590E+002  0.20258771E+002  0.53199199E-001
 -0.88712952E+002  0.23934183E+002  0.17485145E+000
 -0.93715351E+002  0.24151473E+002 -0.12653208E+000
 -0.88318044E+002  0.22670798E+002 -0.30412704E+000
 -0.72345707E+002  0.19024599E+002 -0.50042818E+000
 -0.49034915E+002  0.12937544E+002 -0.28418717E+000
 -0.19988656E+002  0.51758755E+001 -0.74259315E-002
VECTORS Vwnd_CP double
  0.17200000E+002  0.00000000E+000  0.00000000E+000
  0.17200000E+002  0.00000000E+000  0.00000000E+000
  0.17200000E+002  0.00000000E+000  0.00000000E+000
  0.17200000E+002  0.00000000E+000  0.00000000E+000
  0.17200000E+002  0.00000000E+000  0.00000000E+000
  0.17200000E+002  0.00000000E+000  0.00000000E+000
  0.17200000E+002  0.00000000E+000  0.00000000E+000
  0.17200000E+002  0.00000000E+000  0.00000000E+000
  0.17200000E+002  0.00000000E+000  0.00000000E+000
VECTORS Tangent double
  0.86298035E+000 -0.50523611E+000  0.11767900E-002
  0.96502423E+000 -0.26214373E+000 -0.29846058E-002
  0.96975134E+000 -0.24407910E+000 -0.27796118E-002
  0.96968252E+000 -0.24436638E+000 -0.94362700E-003
  0.96698496E+000 -0.25483338E+000 -0.20273532E-003
  0.96798126E+000 -0.25102225E+000 -0.31916810E-003
  0.96916945E+000 -0.24639511E+000 -0.16792910E-003
  0.96805129E+000 -0.25075226E+000  0.71933883E-004
  0.96769412E+000 -0.25207813E+000  0.49699289E-002
VECTORS Normal double
  0.26875356E+000  0.46102063E+000  0.84571360E+000
  0.16905769E+000  0.61356661E+000  0.77133359E+000
  0.17403754E+000  0.68339481E+000  0.70900104E+000
  0.22107124E+000  0.87558531E+000  0.42950887E+000
  0.25482426E+000  0.96695650E+000 -0.77276630E-002
  0.22583736E+000  0.87141803E+000 -0.43546309E+000
  0.17492821E+000  0.68854150E+000 -0.70378315E+000
  0.16043794E+000  0.61916435E+000 -0.76869707E+000
  0.13329581E+000  0.49477399E+000 -0.85873798E+000
VECTORS Orth double
  0.42782758E+000  0.72951796E+000 -0.53363575E+000
  0.20036901E+000  0.74486018E+000 -0.63642405E+000
  0.17115276E+000  0.68803846E+000 -0.70520196E+000
  0.10413130E+000  0.41669585E+000 -0.90306215E+000
 -0.21653027E-002 -0.74208720E-002 -0.99997012E+000
 -0.10958905E+000 -0.42144803E+000 -0.90020653E+000
 -0.17352436E+000 -0.68205575E+000 -0.71041484E+000
 -0.19270799E+000 -0.74414973E+000 -0.63961302E+000
 -0.21401007E+000 -0.83165817E+000 -0.51239084E+000
