# vtk DataFile Version 2.0
Sgmt
ASCII
 
DATASET POLYDATA
POINTS 1260 double
  0.19313425E+000  0.39852958E-001  0.11318111E+003
 -0.19995361E+002 -0.44311596E+001  0.10115780E+003
 -0.34198726E+002 -0.76165908E+001  0.88974484E+002
 -0.45894044E+002 -0.10296810E+002  0.76620935E+002
 -0.51763906E+002 -0.11656705E+002  0.64358698E+002
 -0.51774554E+002 -0.11671800E+002  0.52114443E+002
 -0.45902075E+002 -0.10325732E+002  0.39856025E+002
 -0.34197004E+002 -0.76153436E+001  0.27493866E+002
 -0.20066568E+002 -0.44436510E+001  0.15240365E+002
  0.18087515E-003  0.44196530E-004  0.30001810E+001
 -0.42004900E+001 -0.93162516E+000  0.11313320E+003
 -0.20963712E+002 -0.12648214E+000  0.10115577E+003
 -0.34890319E+002 -0.45979332E+001  0.88976380E+002
 -0.46418347E+002 -0.78979793E+001  0.76614135E+002
 -0.52227883E+002 -0.94491649E+001  0.64354325E+002
 -0.52247883E+002 -0.94214067E+001  0.52118376E+002
 -0.46436416E+002 -0.77809340E+001  0.39855699E+002
 -0.34915213E+002 -0.42658625E+001  0.27497681E+002
 -0.21020747E+002 -0.45976691E-001  0.15242502E+002
 -0.96468546E+000  0.43953857E+001  0.30027066E+001
 -0.40739469E+001 -0.86084328E+000  0.11313490E+003
 -0.20808608E+002  0.25838139E+000  0.10115597E+003
 -0.34812066E+002 -0.39497541E+001  0.88949539E+002
 -0.46428807E+002 -0.70312633E+001  0.76600613E+002
 -0.52282679E+002 -0.84698218E+001  0.64336669E+002
 -0.52299222E+002 -0.84397502E+001  0.52090826E+002
 -0.46444610E+002 -0.69122105E+001  0.39824741E+002
 -0.34835952E+002 -0.36212143E+001  0.27479309E+002
 -0.20857164E+002  0.34004819E+000  0.15236065E+002
 -0.71598743E+000  0.44111180E+001  0.30102880E+001
 -0.39445358E+001 -0.78956594E+000  0.11313626E+003
 -0.20644670E+002  0.64305266E+000  0.10114507E+003
 -0.34719078E+002 -0.33018357E+001  0.88922435E+002
 -0.46420722E+002 -0.61631233E+001  0.76588105E+002
 -0.52317675E+002 -0.74883324E+001  0.64320730E+002
 -0.52331117E+002 -0.74560515E+001  0.52064678E+002
 -0.46433564E+002 -0.60417143E+001  0.39796229E+002
 -0.34740923E+002 -0.29759924E+001  0.27464943E+002
 -0.20684341E+002  0.72502802E+000  0.15231226E+002
 -0.46723990E+000  0.44251768E+001  0.30183356E+001
 -0.38121441E+001 -0.71733096E+000  0.11313737E+003
 -0.20470092E+002  0.10256676E+001  0.10113593E+003
 -0.34609379E+002 -0.26550431E+001  0.88893436E+002
 -0.46387420E+002 -0.52947742E+001  0.76573021E+002
 -0.52326013E+002 -0.65057171E+001  0.64304649E+002
 -0.52339022E+002 -0.64711068E+001  0.52040816E+002
 -0.46400764E+002 -0.51702004E+001  0.39771472E+002
 -0.34629979E+002 -0.23306119E+001  0.27454705E+002
 -0.20502400E+002  0.11088921E+001  0.15227440E+002
 -0.21837857E+000  0.44374133E+001  0.30232979E+001
 -0.36765002E+001 -0.64392509E+000  0.11313856E+003
 -0.20285947E+002  0.14067235E+001  0.10112075E+003
 -0.34483822E+002 -0.20095249E+001  0.88863530E+002
 -0.46332830E+002 -0.44262579E+001  0.76557702E+002
 -0.52306312E+002 -0.55227507E+001  0.64289592E+002
 -0.52317278E+002 -0.54860863E+001  0.52020318E+002
 -0.46344073E+002 -0.42986391E+001  0.39751477E+002
 -0.34503135E+002 -0.16855653E+001  0.27449095E+002
 -0.20310875E+002  0.14912385E+001  0.15225327E+002
  0.30790321E-001  0.44480818E+001  0.30266385E+001
 -0.35374130E+001 -0.56855200E+000  0.11313947E+003
 -0.20090425E+002  0.17856553E+001  0.10109450E+003
 -0.34346659E+002 -0.13659388E+001  0.88836959E+002
 -0.46251758E+002 -0.35589512E+001  0.76539628E+002
 -0.52252025E+002 -0.45410163E+001  0.64273715E+002
 -0.52261323E+002 -0.45024264E+001  0.52004335E+002
 -0.46260594E+002 -0.34281685E+001  0.39738302E+002
 -0.34359008E+002 -0.10418346E+001  0.27448766E+002
 -0.20114509E+002  0.18715977E+001  0.15220494E+002
  0.28045121E+000  0.44573786E+001  0.30299092E+001
 -0.33944929E+001 -0.49203365E+000  0.11314087E+003
 -0.19903319E+002  0.21631347E+001  0.10108730E+003
 -0.34188615E+002 -0.72412581E+000  0.88805293E+002
 -0.46145391E+002 -0.26935422E+001  0.76519283E+002
 -0.52163603E+002 -0.35617748E+001  0.64257783E+002
 -0.52171382E+002 -0.35214477E+001  0.51992561E+002
 -0.46152011E+002 -0.25596360E+001  0.39731281E+002
 -0.34198912E+002 -0.39954156E+000  0.27452676E+002
 -0.19916396E+002  0.22506508E+001  0.15208858E+002
  0.53070938E+000  0.44654377E+001  0.30329325E+001
 -0.32474952E+001 -0.41439000E+000  0.11314270E+003
 -0.19689823E+002  0.25400026E+001  0.10105277E+003
 -0.34015300E+002 -0.84623448E-001  0.88774130E+002
 -0.46025476E+002 -0.18308456E+001  0.76505810E+002
 -0.52041817E+002 -0.25863409E+001  0.64241746E+002
 -0.52048181E+002 -0.25445127E+001  0.51985370E+002
 -0.46022734E+002 -0.16939968E+001  0.39728319E+002
 -0.34023341E+002  0.24085011E+000  0.27460078E+002
 -0.19698285E+002  0.26289430E+001  0.15212069E+002
  0.78162015E+000  0.44723565E+001  0.30355190E+001
 -0.30961662E+001 -0.33570821E+000  0.11314477E+003
 -0.19468336E+002  0.29151893E+001  0.10101763E+003
 -0.33828093E+002  0.55269145E+000  0.88745126E+002
 -0.45875346E+002 -0.97079704E+000  0.76485176E+002
 -0.51899762E+002 -0.16153075E+001  0.64229029E+002
 -0.51903907E+002 -0.15723286E+001  0.51980032E+002
 -0.45870989E+002 -0.83141411E+000  0.39730183E+002
 -0.33833749E+002  0.87920100E+000  0.27470352E+002
 -0.19472481E+002  0.30054787E+001  0.15216212E+002
  0.10334823E+001  0.44783877E+001  0.30370411E+001
 -0.29403235E+001 -0.25611566E+000  0.11314664E+003
 -0.19238370E+002  0.32895661E+001  0.10098977E+003
 -0.33627982E+002  0.11877841E+001  0.88719584E+002
 -0.45705022E+002 -0.11368550E+000  0.76465843E+002
 -0.51735379E+002 -0.64774590E+000  0.64217890E+002
 -0.51737521E+002 -0.60403956E+000  0.51977866E+002
 -0.45699886E+002  0.27888536E-001  0.39735264E+002
 -0.33631423E+002  0.15153714E+001  0.27481553E+002
 -0.19239761E+002  0.33805135E+001  0.15221061E+002
  0.12855470E+001  0.44828370E+001  0.30392331E+001
 -0.27796864E+001 -0.17587645E+000  0.11314759E+003
 -0.19000552E+002  0.36625824E+001  0.10096592E+003
 -0.33415351E+002  0.18205576E+001  0.88698533E+002
 -0.45512714E+002  0.74010432E+000  0.76447808E+002
 -0.51553942E+002  0.31660927E+000  0.64209848E+002
 -0.51554371E+002  0.36056296E+000  0.51977889E+002
 -0.45508445E+002  0.88353950E+000  0.39743943E+002
 -0.33417784E+002  0.21492307E+001  0.27492889E+002
 -0.18999664E+002  0.37531826E+001  0.15224094E+002
  0.15377829E+001  0.44860244E+001  0.30413390E+001
 -0.26139514E+001 -0.95171865E-001  0.11314746E+003
 -0.18756295E+002  0.40327275E+001  0.10092583E+003
 -0.33194786E+002  0.24513790E+001  0.88685759E+002
 -0.45305670E+002  0.15906796E+001  0.76434598E+002
 -0.51349452E+002  0.12771843E+001  0.64202953E+002
 -0.51348969E+002  0.13210756E+001  0.51981602E+002
 -0.45302423E+002  0.17354260E+001  0.39752708E+002
 -0.33210078E+002  0.27825457E+001  0.27484597E+002
 -0.18753238E+002  0.41244263E+001  0.15235060E+002
  0.17899894E+001  0.44880436E+001  0.30426916E+001
 -0.24440489E+001 -0.14238027E-001  0.11314672E+003
 -0.18505507E+002  0.44035343E+001  0.10090997E+003
 -0.32981961E+002  0.30832869E+001  0.88696705E+002
 -0.45086267E+002  0.24391086E+001  0.76425867E+002
 -0.51134635E+002  0.22354391E+001  0.64199518E+002
 -0.51133126E+002  0.22791755E+001  0.51984485E+002
 -0.45082316E+002  0.25842608E+001  0.39759899E+002
 -0.32983603E+002  0.34131304E+001  0.27482523E+002
 -0.18499930E+002  0.44937565E+001  0.15241976E+002
  0.20420747E+001  0.44885973E+001  0.30444339E+001
  0.19313425E+000  0.39852958E-001  0.11318111E+003
  0.62708869E+001  0.19609728E+002  0.10081863E+003
  0.10633790E+002  0.33547280E+002  0.88722678E+002
  0.14309680E+002  0.45176275E+002  0.76540297E+002
  0.16094794E+002  0.50815900E+002  0.64216233E+002
  0.16087162E+002  0.50751031E+002  0.51954507E+002
  0.14289543E+002  0.45051959E+002  0.39663376E+002
  0.10620459E+002  0.33479156E+002  0.27417820E+002
  0.62168708E+001  0.19589287E+002  0.15263383E+002
  0.18087515E-003  0.44196530E-004  0.30001810E+001
  0.32217447E+001 -0.32884105E+001  0.11319457E+003
  0.10453947E+002  0.18206195E+002  0.10081101E+003
  0.13588166E+002  0.32618723E+002  0.88716538E+002
  0.16658069E+002  0.44459062E+002  0.76539004E+002
  0.18244176E+002  0.50131294E+002  0.64216192E+002
  0.18274554E+002  0.50041353E+002  0.51954191E+002
  0.16771780E+002  0.44277350E+002  0.39662670E+002
  0.13888239E+002  0.32451307E+002  0.27417944E+002
  0.10502614E+002  0.18217280E+002  0.15263897E+002
  0.42889484E+001 -0.13620789E+001  0.30332481E+001
  0.33060347E+001 -0.33470816E+001  0.11318793E+003
  0.10942496E+002  0.18017900E+002  0.10080989E+003
  0.14340084E+002  0.32353230E+002  0.88715579E+002
  0.17625052E+002  0.44123432E+002  0.76529730E+002
  0.19319136E+002  0.49780075E+002  0.64215461E+002
  0.19347641E+002  0.49699541E+002  0.51958202E+002
  0.17736002E+002  0.43956556E+002  0.39672982E+002
  0.14638846E+002  0.32185356E+002  0.27429731E+002
  0.10999549E+002  0.18022113E+002  0.15267703E+002
  0.44343488E+001 -0.14386170E+001  0.30364051E+001
  0.33911148E+001 -0.34035802E+001  0.11317950E+003
  0.11429461E+002  0.17824519E+002  0.10081102E+003
  0.15087379E+002  0.32076810E+002  0.88714371E+002
  0.18584467E+002  0.43772663E+002  0.76519345E+002
  0.20386861E+002  0.49412951E+002  0.64214394E+002
  0.20414352E+002  0.49341781E+002  0.51962279E+002
  0.18694087E+002  0.43620844E+002  0.39683737E+002
  0.15384669E+002  0.31909046E+002  0.27441182E+002
  0.11493249E+002  0.17821791E+002  0.15271056E+002
  0.45787225E+001 -0.15141245E+001  0.30391032E+001
  0.34767046E+001 -0.34589528E+001  0.11317316E+003
  0.11914788E+002  0.17626116E+002  0.10081519E+003
  0.15829647E+002  0.31789289E+002  0.88712424E+002
  0.19536573E+002  0.43408430E+002  0.76508876E+002
  0.21447026E+002  0.49030284E+002  0.64213199E+002
  0.21474253E+002  0.48967955E+002  0.51966196E+002
  0.19646392E+002  0.43271748E+002  0.39693533E+002
  0.16125625E+002  0.31622698E+002  0.27451932E+002
  0.11983738E+002  0.17616574E+002  0.15273689E+002
  0.47213494E+001 -0.15900289E+001  0.30412831E+001
[...]
CELL_DATA 2304
SCALARS Gamma double
LOOKUP_TABLE default
 -0.48659957E+001
  0.48659957E+001
 -0.16100426E+003
  0.15613826E+003
 -0.14412127E+003
 -0.16882991E+002
 -0.11908272E+003
 -0.25038550E+002
 -0.11019902E+003
 -0.88836971E+001
 -0.10289716E+003
 -0.73018580E+001
 -0.11562099E+003
  0.12723829E+002
 -0.14786472E+003
  0.32243725E+002
 -0.69415513E+002
 -0.78449203E+002
 -0.69415513E+002
  0.00000000E+000
  0.48659957E+001
  0.00000000E+000
  0.15613826E+003
  0.00000000E+000
 -0.16882991E+002
  0.00000000E+000
 -0.25038550E+002
  0.00000000E+000
 -0.88836971E+001
  0.00000000E+000
 -0.73018580E+001
  0.00000000E+000
  0.12723829E+002
  0.00000000E+000
  0.32243725E+002
  0.00000000E+000
 -0.78449203E+002
 -0.69415513E+002
 -0.14351985E+000
  0.50095155E+001
 -0.44288301E+000
  0.15643763E+003
  0.19745549E+000
 -0.17523329E+002
 -0.24051006E+001
 -0.22435994E+002
 -0.49591754E+001
 -0.63296223E+001
 -0.52127925E+001
 -0.70482410E+001
 -0.32331920E+001
  0.10744228E+002
 -0.20389841E+001
  0.31049517E+002
 -0.22450642E+001
 -0.78243123E+002
 -0.71660577E+002
 -0.13997529E+000
  0.51494908E+001
 -0.92830764E-001
  0.15639048E+003
  0.52297140E+000
 -0.18139131E+002
 -0.23503403E+001
 -0.19562683E+002
 -0.39115262E+001
 -0.47684364E+001
 -0.50048418E+001
 -0.59549254E+001
 -0.29758320E+001
  0.87152186E+001
 -0.17509083E+001
  0.29824593E+002
 -0.21431196E+001
 -0.77850912E+002
 -0.73803696E+002
  0.14837073E-001
  0.51346537E+001
  0.48806848E+001
  0.15152463E+003
  0.49326920E+001
 -0.18191138E+002
  0.12062066E+001
 -0.15836197E+002
 -0.13701543E+000
 -0.34252144E+001
 -0.79400306E+000
 -0.52979378E+001
  0.88270414E+000
  0.70385114E+001
  0.29489499E+001
  0.27758347E+002
  0.14956181E+000
 -0.75051524E+002
 -0.73654135E+002
  0.47592712E+000
  0.46587266E+001
  0.18303795E+002
  0.13369677E+003
  0.16748446E+002
 -0.16635789E+002
  0.12128025E+002
 -0.11215776E+002
  0.10640676E+002
 -0.19378658E+001
  0.10099609E+002
 -0.47568714E+001
  0.11731022E+002
  0.54070988E+001
  0.15972660E+002
  0.23516710E+002
  0.67350539E+001
 -0.65813918E+002
 -0.66919081E+002
  0.83211125E+000
  0.38266154E+001
  0.27867914E+002
  0.10666096E+003
  0.24918373E+002
 -0.13686248E+002
  0.20471167E+002
 -0.67685699E+001
  0.18877183E+002
 -0.34388132E+000
  0.18315604E+002
 -0.41952929E+001
  0.19841319E+002
  0.38813838E+001
  0.25575396E+002
  0.17782634E+002
  0.12482756E+002
 -0.52721278E+002
 -0.54436325E+002
  0.99235881E+000
  0.28342566E+001
  0.31099255E+002
  0.76554066E+002
  0.27415886E+002
 -0.10002878E+002
  0.23975277E+002
 -0.33279609E+001
  0.23038709E+002
  0.59268608E+000
  0.22064967E+002
 -0.32215504E+001
  0.23517145E+002
  0.24292057E+001
  0.29201645E+002
  0.12098133E+002
  0.14721714E+002
 -0.38241348E+002
 -0.39714610E+002
  0.10427003E+001
  0.17915563E+001
  0.30769127E+002
  0.46827639E+002
  0.26983230E+002
 -0.62169816E+001
  0.24776825E+002
 -0.11215561E+001
  0.24504431E+002
  0.86508056E+000
  0.23208485E+002
 -0.19256050E+001
  0.24544431E+002
  0.10932602E+001
  0.29638113E+002
  0.70044515E+001
  0.14999923E+002
 -0.23603158E+002
 -0.24714688E+002
  0.97299534E+000
  0.81856091E+000
  0.27077488E+002
  0.20723147E+002
  0.23657597E+002
 -0.27970910E+001
  0.22649332E+002
 -0.11329133E+000
  0.22929610E+002
  0.58480337E+000
  0.21802107E+002
 -0.79810264E+000
  0.22590109E+002
  0.30525857E+000
  0.26662817E+002
  0.29317436E+001
  0.13579584E+002
 -0.10519925E+002
 -0.11135103E+002
  0.64872544E+000
  0.16983547E+000
  0.17225887E+002
  0.41459856E+001
  0.14985761E+002
 -0.55696483E+000
  0.14823631E+002
  0.48838483E-001
  0.15253043E+002
  0.15539132E+000
  0.14596251E+002
 -0.14131106E+000
  0.14877618E+002
  0.23892066E-001
  0.17257262E+002
  0.55209979E+000
  0.88586096E+001
 -0.21212729E+001
 -0.22764939E+001
  0.16779964E+000
  0.20358333E-002
  0.42656912E+001
  0.48093971E-001
  0.37150864E+001
 -0.63599538E-002
  0.37625785E+001
  0.13463489E-002
  0.39157448E+001
  0.22250323E-002
  0.37758405E+001
 -0.14067937E-002
  0.37998844E+001
 -0.15175484E-003
  0.43459621E+001
  0.60219938E-002
  0.22494345E+001
 -0.24745317E-001
 -0.27059359E-001
  0.20358333E-002
  0.00000000E+000
  0.00000000E+000
  0.50129804E-001
 -0.00000000E+000
  0.00000000E+000
  0.43769850E-001
 -0.00000000E+000
  0.00000000E+000
  0.45116199E-001
 -0.00000000E+000
  0.00000000E+000
  0.47341231E-001
 -0.00000000E+000
  0.00000000E+000
  0.45934438E-001
 -0.00000000E+000
  0.00000000E+000
  0.45782683E-001
 -0.00000000E+000
  0.00000000E+000
  0.51804677E-001
 -0.00000000E+000
  0.00000000E+000
  0.27059359E-001
 -0.00000000E+000
  0.00000000E+000
 -0.00000000E+000
  0.11372478E+003
 -0.11372478E+003
  0.53426427E+002
  0.60298351E+002
  0.20225088E+002
  0.33201339E+002
  0.28672640E+002
 -0.84475520E+001
  0.51117529E+002
 -0.22444889E+002
  0.43943908E+002
  0.71736217E+001
  0.30757073E+002
  0.13186835E+002
  0.43294595E+002
 -0.12537523E+002
  0.50780150E+002
 -0.74855547E+001
  0.50780150E+002
  0.00000000E+000
 -0.11372478E+003
  0.00000000E+000
  0.60298351E+002
  0.00000000E+000
  0.33201339E+002
  0.00000000E+000
 -0.84475520E+001
  0.00000000E+000
 -0.22444889E+002
  0.00000000E+000
  0.71736217E+001
  0.00000000E+000
  0.13186835E+002
  0.00000000E+000
 -0.12537523E+002
  0.00000000E+000
 -0.74855547E+001
  0.50780150E+002
  0.11519653E+001
 -0.11487674E+003
  0.10830052E+001
  0.60367311E+002
  0.10138338E+001
  0.33270510E+002
  0.29061155E+001
 -0.10339834E+002
  0.30168516E+001
 -0.22555625E+002
  0.25732902E+001
  0.76171830E+001
  0.20742879E+001
  0.13685837E+002
  0.28322246E+001
 -0.13295459E+002
  0.27283583E+001
 -0.73816885E+001
  0.53508508E+002
  0.62716214E+000
 -0.11550391E+003
  0.10896381E+001
  0.59904835E+002
  0.13834750E+001
  0.32976673E+002
  0.30181911E+001
 -0.11974550E+002
  0.27747242E+001
 -0.22312158E+002
  0.24218867E+001
  0.79700206E+001
  0.21885717E+001
  0.13919152E+002
  0.29364170E+001
 -0.14043304E+002
  0.26655115E+001
 -0.71107830E+001
  0.56174020E+002
 -0.28959937E+001
 -0.11260791E+003
 -0.48009835E+000
  0.57488939E+002
  0.10877219E+001
  0.31408853E+002
  0.19778335E+001
 -0.12864662E+002
  0.71827404E+000
 -0.21052598E+002
  0.73400206E+000
  0.79542925E+001
  0.12293416E+001
  0.13423813E+002
  0.15715189E+001
 -0.14385482E+002
  0.92866735E+000
 -0.64679314E+001
  0.57102687E+002
 -0.12602314E+002
 -0.10000560E+003
 -0.52290479E+001
  0.50115674E+002
 -0.75883078E+000
  0.26938636E+002
 -0.15209807E+001
 -0.12102512E+002
 -0.48403114E+001
 -0.17733268E+002
 -0.39698689E+001
  0.70838501E+001
 -0.20334040E+001
  0.11487348E+002
 -0.30433522E+001
 -0.13375534E+002
 -0.43170140E+001
 -0.51942696E+001
  0.52785673E+002
 -0.19765346E+002
 -0.80240252E+002
 -0.88862138E+001
  0.39236541E+002
 -0.26267096E+001
  0.20679132E+002
 -0.48235155E+001
 -0.99057057E+001
 -0.93638934E+001
 -0.13192890E+002
 -0.78432373E+001
  0.55631940E+001
 -0.49671768E+001
  0.86112870E+001
 -0.71011572E+001
 -0.11241553E+002
 -0.86556926E+001
 -0.36397342E+001
  0.44129981E+002
 -0.22240400E+002
 -0.57999852E+002
 -0.10510455E+002
  0.27506596E+002
 -0.39498849E+001
  0.14118562E+002
 -0.68456066E+001
 -0.70099840E+001
 -0.11448451E+002
 -0.85900453E+001
 -0.96926403E+001
  0.38073832E+001
 -0.66721349E+001
  0.55907816E+001
 -0.94491412E+001
 -0.84645468E+001
 -0.10904937E+002
 -0.21839384E+001
  0.33225043E+002
 -0.22238158E+002
 -0.35761694E+002
 -0.11071798E+002
  0.16340236E+002
 -0.50772428E+001
  0.81240071E+001
 -0.80530541E+001
 -0.40341727E+001
 -0.12045193E+002
 -0.45979064E+001
 -0.10367287E+002
  0.21294770E+001
 -0.77188607E+001
  0.29423555E+001
 -0.10764720E+002
 -0.54186876E+001
 -0.11897044E+002
 -0.10516144E+001
  0.21328000E+002
 -0.19801747E+002
 -0.15959946E+002
 -0.10431548E+002
  0.69700364E+001
 -0.56400549E+001
  0.33325139E+001
 -0.81041948E+001
 -0.15700328E+001
 -0.11011162E+002
 -0.16909396E+001
 -0.96864267E+001
  0.80474206E+000
 -0.77734533E+001
  0.10293821E+001
 -0.10713530E+002
 -0.24786105E+001
 -0.11444404E+002
 -0.32074043E+000
  0.98835952E+001
 -0.12734296E+002
 -0.32256505E+001
 -0.70919756E+001
  0.13277161E+001
 -0.43707978E+001
  0.61133605E+000
 -0.56838027E+001
 -0.25702784E+000
 -0.71110926E+001
 -0.26364967E+000
 -0.64318326E+001
  0.12548201E+000
 -0.55503317E+001
  0.14788120E+000
 -0.75239556E+001
 -0.50498659E+000
 -0.78048641E+001
 -0.39831881E-001
  0.20787311E+001
 -0.31878192E+001
 -0.37831218E-001
 -0.18745597E+001
  0.14456477E-001
 -0.12697514E+001
  0.65277625E-002
 -0.15248765E+001
 -0.19027177E-002
 -0.17864326E+001
 -0.20935815E-002
 -0.16619089E+001
  0.95830135E-003
 -0.15148379E+001
  0.81028700E-003
 -0.20138719E+001
 -0.59526030E-002
 -0.20534908E+001
 -0.21301071E-003
  0.25240302E-001
 -0.37831218E-001
 -0.00000000E+000
 -0.00000000E+000
 -0.23374740E-001
 -0.00000000E+000
 -0.00000000E+000
 -0.16846978E-001
 -0.00000000E+000
 -0.00000000E+000
 -0.18749696E-001
 -0.00000000E+000
 -0.00000000E+000
 -0.20843277E-001
 -0.00000000E+000
 -0.00000000E+000
 -0.19884976E-001
 -0.00000000E+000
 -0.00000000E+000
 -0.19074689E-001
 -0.00000000E+000
 -0.00000000E+000
 -0.25027292E-001
 -0.00000000E+000
 -0.00000000E+000
 -0.25240302E-001
 -0.00000000E+000
 -0.00000000E+000
  0.00000000E+000
  0.53124638E+002
 -0.53124638E+002
  0.99545566E+002
 -0.46420929E+002
  0.72503410E+002
  0.27042157E+002
  0.85940782E+002
 -0.13437372E+002
  0.10101857E+003
 -0.15077790E+002
  0.99434899E+002
  0.15836730E+001
  0.89869162E+002
  0.95657370E+001
  0.10439297E+003
 -0.14523803E+002
  0.30010144E+002
  0.74382821E+002
  0.30010144E+002
  0.00000000E+000
 -0.53124638E+002
  0.00000000E+000
 -0.46420929E+002
  0.00000000E+000
  0.27042157E+002
  0.00000000E+000
 -0.13437372E+002
  0.00000000E+000
 -0.15077790E+002
  0.00000000E+000
  0.15836730E+001
  0.00000000E+000
  0.95657370E+001
  0.00000000E+000
 -0.14523803E+002
  0.00000000E+000
  0.74382821E+002
  0.30010144E+002
 -0.14771720E+001
 -0.51647466E+002
 -0.18073547E+001
 -0.46090746E+002
 -0.20989389E+001
  0.27333741E+002
 -0.15466766E+001
 -0.13989635E+002
 -0.88625950E+000
 -0.15738207E+002
 -0.17799275E+001
  0.24773410E+001
 -0.19260392E+001
  0.97118486E+001
 -0.15893747E+001
 -0.14860467E+002
 -0.60316145E+000
  0.73396608E+002
  0.29406983E+002
 -0.15138546E+001
 -0.50133611E+002
 -0.19359266E+001
 -0.45668674E+002
 -0.20075771E+001
  0.27405391E+002
 -0.16190547E+001
 -0.14378157E+002
 -0.11653775E+001
 -0.16191885E+002
 -0.20317160E+001
  0.33436796E+001
 -0.20053873E+001
  0.96855198E+001
 -0.16678422E+001
 -0.15198012E+002
 -0.64603767E+000
  0.72374803E+002
  0.28760945E+002
 -0.30068415E+001
 -0.47126770E+002
 -0.47207272E+001
 -0.43954788E+002
 -0.37978442E+001
  0.26482508E+002
 -0.40482626E+001
 -0.14127739E+002
 -0.43459059E+001
 -0.15894241E+002
 -0.49767692E+001
  0.39745430E+001
 -0.44853409E+001
  0.91940915E+001
 -0.45649217E+001
 -0.15118432E+002
 -0.14880132E+001
  0.69297894E+002
  0.27272932E+002
 -0.68188349E+001
 -0.40307935E+002
 -0.12197779E+002
 -0.38575845E+002
 -0.88416361E+001
  0.23126366E+002
 -0.10544737E+002
 -0.12424638E+002
 -0.12610496E+002
 -0.13828482E+002
 -0.12536655E+002
  0.39007012E+001
 -0.11121388E+002
  0.77788247E+001
 -0.12527415E+002
 -0.13712404E+002
 -0.37148458E+001
  0.60485325E+002
  0.23558086E+002
 -0.91277294E+001
 -0.31180205E+002
 -0.17022088E+002
 -0.30681486E+002
 -0.12027814E+002
  0.18132092E+002
 -0.14779134E+002
 -0.96733181E+001
 -0.17931352E+002
 -0.10676264E+002
 -0.17347197E+002
  0.33165460E+001
 -0.15364989E+002
  0.57966173E+001
 -0.17791989E+002
 -0.11285405E+002
 -0.51326887E+001
  0.47826025E+002
  0.18425397E+002
 -0.94285308E+001
 -0.21751674E+002
 -0.18113224E+002
 -0.21996792E+002
 -0.12637587E+002
  0.12656455E+002
 -0.15700499E+002
 -0.66104064E+001
 -0.19124492E+002
 -0.72522709E+001
 -0.18240085E+002
  0.24321392E+001
 -0.16208555E+002
  0.37650876E+001
 -0.19134557E+002
 -0.83594026E+001
 -0.54301888E+001
  0.34121657E+002
  0.12995209E+002
 -0.88111280E+001
 -0.12940546E+002
 -0.17364621E+002
 -0.13443300E+002
 -0.12134860E+002
  0.74266936E+001
 -0.15020160E+002
 -0.37251056E+001
 -0.18202912E+002
 -0.40695191E+001
 -0.17222675E+002
  0.14519017E+001
 -0.15451635E+002
  0.19940483E+001
 -0.18533877E+002
 -0.52771613E+001
 -0.51786026E+001
  0.20766383E+002
  0.78166061E+001
 -0.73888130E+001
 -0.55517334E+001
 -0.14859403E+002
 -0.59727103E+001
 -0.10531808E+002
  0.30990986E+001
 -0.12815353E+002
 -0.14415602E+001
 -0.15308397E+002
 -0.15764755E+001
 -0.14442329E+002
  0.58583389E+000
 -0.13152417E+002
  0.70413672E+000
 -0.16048524E+002
 -0.23810543E+001
 -0.44178333E+001
  0.91356917E+001
  0.33987728E+001
 -0.44720828E+001
 -0.10796506E+001
 -0.92379513E+001
 -0.12068418E+001
 -0.67130300E+001
  0.57417728E+000
 -0.79160876E+001
 -0.23850265E+000
 -0.92326540E+001
 -0.25990912E+000
 -0.87457936E+001
  0.98973503E-001
 -0.81446344E+001
  0.10297754E+000
 -0.10049450E+002
 -0.47623825E+000
 -0.27284752E+001
  0.18147164E+001
  0.67029763E+000
 -0.10674822E+001
 -0.12168383E-001
 -0.22601309E+001
 -0.14193089E-001
 -0.16920466E+001
  0.60929708E-002
 -0.19286953E+001
 -0.18539712E-002
 -0.21864031E+001
 -0.22012529E-002
 -0.20882739E+001
  0.84422521E-003
 -0.19858451E+001
  0.54879671E-003
 -0.24566168E+001
 -0.54665826E-002
 -0.66265053E+000
  0.20750192E-001
  0.76470951E-002
 -0.12168383E-001
 -0.00000000E+000
 -0.00000000E+000
 -0.26361473E-001
 -0.00000000E+000
 -0.00000000E+000
 -0.20268502E-001
 -0.00000000E+000
 -0.00000000E+000
 -0.22122473E-001
 -0.00000000E+000
 -0.00000000E+000
 -0.24323726E-001
 -0.00000000E+000
 -0.00000000E+000
 -0.23479501E-001
 -0.00000000E+000
 -0.00000000E+000
 -0.22930704E-001
 -0.00000000E+000
 -0.00000000E+000
 -0.28397287E-001
 -0.00000000E+000
 -0.00000000E+000
 -0.76470951E-002
 -0.00000000E+000
 -0.00000000E+000
  0.00000000E+000
  0.27610205E+001
 -0.27610205E+001
  0.21316796E+001
  0.62934091E+000
  0.93648067E+000
  0.11951989E+001
  0.81077128E+000
  0.12570938E+000
 -0.44194454E+000
  0.12527158E+001
 -0.11015599E+001
  0.65961531E+000
 -0.18695244E+001
  0.76796456E+000
 -0.25780878E+001
  0.70856343E+000
 -0.40571594E+001
  0.14790716E+001
 -0.40571594E+001
  0.00000000E+000
 -0.27610205E+001
  0.00000000E+000
  0.62934091E+000
  0.00000000E+000
  0.11951989E+001
  0.00000000E+000
  0.12570938E+000
  0.00000000E+000
  0.12527158E+001
  0.00000000E+000
  0.65961531E+000
  0.00000000E+000
  0.76796456E+000
  0.00000000E+000
  0.70856343E+000
  0.00000000E+000
  0.14790716E+001
 -0.40571594E+001
 -0.56966877E+000
 -0.21913517E+001
  0.50327048E+000
 -0.44359834E+000
 -0.61338668E-001
  0.17598080E+001
  0.83262807E-002
  0.56044436E-001
  0.41607729E-001
  0.12194344E+001
  0.78239846E-001
  0.62298320E+000
  0.14002840E+000
  0.70617601E+000
  0.20317185E+000
  0.64541997E+000
  0.28336507E+000
  0.13988783E+001
 -0.37737943E+001
 -0.31499761E+000
 -0.18763541E+001
  0.41640248E+000
 -0.11749984E+001
 -0.24159889E-001
  0.22003704E+001
 -0.67634145E-002
  0.38647962E-001
  0.38102358E-001
  0.11745686E+001
  0.73807161E-001
  0.58727839E+000
  0.13787923E+000
  0.64210394E+000
  0.20458412E+000
  0.57871509E+000
  0.29232950E+000
  0.13111330E+001
 -0.34814648E+001
 -0.24670707E+000
 -0.16296470E+001
  0.17395061E+000
 -0.15956561E+001
 -0.41926253E-001
  0.24162473E+001
 -0.63482724E-001
  0.60204433E-001
  0.32319316E-001
  0.10787666E+001
  0.87746644E-001
  0.53185107E+000
  0.17351125E+000
  0.55633933E+000
  0.25865135E+000
  0.49357499E+000
  0.39225920E+000
  0.11775251E+001
 -0.30892056E+001
 -0.10570517E+001
 -0.57259528E+000
 -0.35038312E+000
 -0.23023247E+001
 -0.20086932E+000
  0.22667335E+001
 -0.18880066E+000
  0.48135774E-001
  0.17671221E-001
  0.87229468E+000
  0.12194670E+000
  0.42757559E+000
  0.24948669E+000
  0.42879934E+000
  0.36975895E+000
  0.37330273E+000
  0.58930042E+000
  0.95798365E+000
 -0.24999052E+001
 -0.99894903E+000
  0.42635375E+000
 -0.64478693E+000
 -0.26564868E+001
 -0.23838032E+000
  0.18603269E+001
 -0.21502493E+000
  0.24780382E-001
  0.31551424E-001
  0.62571833E+000
  0.15364677E+000
  0.30548024E+000
  0.28903656E+000
  0.29340954E+000
  0.41200876E+000
  0.25033053E+000
  0.66406051E+000
  0.70593190E+000
 -0.18358447E+001
 -0.26953729E+000
  0.69589104E+000
 -0.74847230E+000
 -0.21775518E+001
 -0.17123205E+000
  0.12830866E+001
 -0.17877234E+000
  0.32320669E-001
  0.49585216E-001
  0.39736077E+000
  0.15674226E+000
  0.19832320E+000
  0.27025338E+000
  0.17989843E+000
  0.37051212E+000
  0.15007179E+000
  0.60449651E+000
  0.47194751E+000
 -0.12313482E+001
  0.49003459E+000
  0.20585645E+000
 -0.72094390E+000
 -0.96657333E+000
 -0.10196453E+000
  0.66410724E+000
 -0.12279575E+000
  0.53151884E-001
  0.63897965E-001
  0.21066706E+000
  0.15246794E+000
  0.10975322E+000
  0.24066590E+000
  0.91700472E-001
  0.31558484E+000
  0.75152854E-001
  0.51858801E+000
  0.26894434E+000
 -0.71276020E+000
  0.22058251E+000
 -0.14726060E-001
 -0.50525433E+000
 -0.24073648E+000
 -0.71576945E-001
  0.23042985E+000
 -0.54497242E-001
  0.36072180E-001
  0.77342782E-001
  0.78827037E-001
  0.14351446E+000
  0.43581542E-001
  0.20182208E+000
  0.33392851E-001
  0.24991818E+000
  0.27056754E-001
  0.40676106E+000
  0.11210146E+000
 -0.30599914E+000
  0.11591051E-002
 -0.15885165E-001
 -0.21969885E+000
 -0.19878529E-001
 -0.24307034E-001
  0.35038042E-001
  0.29444707E-002
  0.88206752E-002
  0.68706243E-001
  0.13065265E-001
  0.10477999E+000
  0.75077901E-002
  0.13285900E+000
  0.53138460E-002
  0.15551724E+000
  0.43985183E-002
  0.24588546E+000
  0.21733232E-001
 -0.60113674E-001
 -0.15695824E-001
 -0.18934076E-003
 -0.35522716E-001
 -0.51637527E-004
 -0.78145232E-003
  0.29677866E-003
  0.79265796E-002
  0.11264327E-003
  0.20867785E-001
  0.12405976E-003
  0.28305413E-001
  0.70162431E-004
  0.33575191E-001
  0.44067848E-004
  0.37937774E-001
  0.35934829E-004
  0.59422186E-001
  0.24882016E-003
 -0.69148868E-003
 -0.18934076E-003
 -0.00000000E+000
 -0.00000000E+000
 -0.24097829E-003
 -0.00000000E+000
 -0.00000000E+000
  0.55800373E-004
  0.00000000E+000
  0.00000000E+000
  0.16844364E-003
 -0.00000000E+000
  0.00000000E+000
  0.29250341E-003
 -0.00000000E+000
  0.00000000E+000
  0.36266584E-003
 -0.00000000E+000
  0.00000000E+000
  0.40673368E-003
 -0.00000000E+000
  0.00000000E+000
  0.44266851E-003
 -0.00000000E+000
  0.00000000E+000
  0.69148868E-003
 -0.00000000E+000
  0.00000000E+000
 -0.00000000E+000
 -0.29664272E+001
  0.29664272E+001
  0.95361102E+000
 -0.39200383E+001
 -0.53425414E+000
  0.14878652E+001
 -0.70115699E+000
  0.16690285E+000
 -0.69199446E+000
 -0.91625275E-002
 -0.14719334E+000
 -0.54480112E+000
  0.14378351E+000
 -0.29097686E+000
  0.50540463E+000
 -0.36162111E+000
  0.11674974E+001
 -0.66209276E+000
  0.11674974E+001
  0.00000000E+000
  0.29664272E+001
  0.00000000E+000
 -0.39200383E+001
  0.00000000E+000
  0.14878652E+001
  0.00000000E+000
  0.16690285E+000
  0.00000000E+000
 -0.91625275E-002
  0.00000000E+000
 -0.54480112E+000
  0.00000000E+000
 -0.29097686E+000
  0.00000000E+000
 -0.36162111E+000
  0.00000000E+000
 -0.66209276E+000
  0.11674974E+001
  0.21093335E+000
  0.27554939E+001
 -0.13298904E+000
 -0.35761159E+001
 -0.15453002E+000
  0.15094061E+001
 -0.22385141E+000
  0.23622424E+000
 -0.30602834E+000
  0.73014405E-001
 -0.38053618E+000
 -0.47029328E+000
 -0.37985556E+000
 -0.29165748E+000
 -0.34807133E+000
 -0.39340535E+000
 -0.32742007E+000
 -0.68274402E+000
  0.84007731E+000
  0.13590934E+000
  0.26195845E+001
 -0.13885612E+000
 -0.33013504E+001
 -0.19281878E+000
  0.15633688E+001
 -0.27191870E+000
  0.31532415E+000
 -0.36114238E+000
  0.16223809E+000
 -0.43871542E+000
 -0.39272024E+000
 -0.44102712E+000
 -0.28934578E+000
 -0.40457397E+000
 -0.42985849E+000
 -0.38999178E+000
 -0.69732620E+000
  0.45008553E+000
  0.21468478E+000
  0.24048998E+001
 -0.21210089E+000
 -0.28745647E+001
 -0.19528505E+000
  0.15465530E+001
 -0.27989553E+000