# vtk DataFile Version 2.0
Sgmt
ASCII
 
DATASET POLYDATA
POINTS 540 double
  0.22148872E-001  0.38047705E-002  0.11318210E+003
 -0.20491423E+002 -0.14814801E+001  0.10096471E+003
 -0.34949812E+002 -0.25320944E+001  0.88724425E+002
 -0.47041349E+002 -0.34158482E+001  0.76470067E+002
 -0.53089895E+002 -0.38601502E+001  0.64226037E+002
 -0.53090827E+002 -0.38612664E+001  0.51984255E+002
 -0.47041130E+002 -0.34217037E+001  0.39741403E+002
 -0.34951585E+002 -0.25347903E+001  0.27482981E+002
 -0.20497843E+002 -0.14835644E+001  0.15241403E+002
  0.13959996E-003  0.30707559E-004  0.30000914E+001
 -0.44660557E+001 -0.32176496E+000  0.11317718E+003
 -0.20816498E+002  0.29187786E+001  0.10096649E+003
 -0.35183838E+002  0.55591683E+000  0.88728516E+002
 -0.47223053E+002 -0.96711176E+000  0.76471566E+002
 -0.53253774E+002 -0.16103349E+001  0.64226278E+002
 -0.53257055E+002 -0.15676466E+001  0.51982957E+002
 -0.47225350E+002 -0.82794819E+000  0.39737811E+002
 -0.35195058E+002  0.88216489E+000  0.27482666E+002
 -0.20820214E+002  0.30048738E+001  0.15241458E+002
 -0.32439715E+000  0.44883128E+001  0.30001563E+001
 -0.43097819E+001 -0.24210830E+000  0.11317988E+003
 -0.20589705E+002  0.32946515E+001  0.10095441E+003
 -0.34995225E+002  0.11946450E+001  0.88714723E+002
 -0.47069201E+002 -0.10646947E+000  0.76464051E+002
 -0.53113617E+002 -0.63777856E+000  0.64219545E+002
 -0.53115637E+002 -0.59430921E+000  0.51976102E+002
 -0.47070422E+002  0.34798107E-001  0.39731752E+002
 -0.35003218E+002  0.15216124E+001  0.27483305E+002
 -0.20591493E+002  0.33813613E+001  0.15241669E+002
 -0.71493942E-001  0.44933742E+001  0.30003147E+001
 -0.41486898E+001 -0.16180058E+000  0.11318174E+003
 -0.20354583E+002  0.36688569E+001  0.10094591E+003
 -0.34793505E+002  0.18310265E+001  0.88704827E+002
 -0.46895872E+002  0.75089733E+000  0.76458782E+002
 -0.52951413E+002  0.33088490E+000  0.64215203E+002
 -0.52952548E+002  0.37472727E+000  0.51972008E+002
 -0.46897067E+002  0.89396682E+000  0.39728529E+002
 -0.34799524E+002  0.21587753E+001  0.27484258E+002
 -0.20355710E+002  0.37560971E+001  0.15242065E+002
  0.18163623E+000  0.44970244E+001  0.30002954E+001
 -0.39824603E+001 -0.81048151E-001  0.11318256E+003
 -0.20111953E+002  0.40413371E+001  0.10094155E+003
 -0.34579742E+002  0.24649046E+001  0.88699342E+002
 -0.46703796E+002  0.16045941E+001  0.76455990E+002
 -0.52767848E+002  0.12951550E+001  0.64213198E+002
 -0.52768466E+002  0.13390417E+001  0.51970424E+002
 -0.46705230E+002  0.17489584E+001  0.39727654E+002
 -0.34583994E+002  0.27933572E+001  0.27484905E+002
 -0.20112927E+002  0.41289569E+001  0.15242399E+002
  0.43479382E+000  0.44992100E+001  0.30002981E+001
 -0.38120405E+001 -0.55312340E-004  0.11318274E+003
 -0.19863238E+002  0.44122317E+001  0.10094043E+003
 -0.34356308E+002  0.30968274E+001  0.88697784E+002
 -0.46495153E+002  0.24554437E+001  0.76455231E+002
 -0.52564451E+002  0.22557209E+001  0.64212744E+002
 -0.52564454E+002  0.22995807E+001  0.51970158E+002
 -0.46495153E+002  0.26002652E+001  0.39727672E+002
 -0.34356306E+002  0.34255733E+001  0.27485119E+002
 -0.19863239E+002  0.44999816E+001  0.15242522E+002
  0.68788371E+000  0.44999358E+001  0.30003100E+001
  0.22148872E-001  0.38047705E-002  0.11318210E+003
  0.89696507E+001  0.18497659E+002  0.10092124E+003
  0.15302463E+002  0.31562062E+002  0.88708846E+002
  0.20605598E+002  0.42491987E+002  0.76469719E+002
  0.23247518E+002  0.47940967E+002  0.64216155E+002
  0.23244506E+002  0.47935692E+002  0.51967866E+002
  0.20600627E+002  0.42482140E+002  0.39717018E+002
  0.15299148E+002  0.31553347E+002  0.27474544E+002
  0.89668967E+001  0.18492992E+002  0.15252374E+002
  0.13959996E-003  0.30707559E-004  0.30000914E+001
  0.25487038E+001 -0.37199728E+001  0.11318317E+003
  0.12934838E+002  0.16562394E+002  0.10092132E+003
  0.18090137E+002  0.30213185E+002  0.88709781E+002
  0.22816447E+002  0.41423587E+002  0.76470180E+002
  0.25277244E+002  0.46956724E+002  0.64216259E+002
  0.25313470E+002  0.46931841E+002  0.51967520E+002
  0.22941944E+002  0.41350880E+002  0.39716353E+002
  0.18381914E+002  0.30059555E+002  0.27474753E+002
  0.13014738E+002  0.16527036E+002  0.15252565E+002
  0.40493702E+001 -0.19630536E+001  0.30057078E+001
  0.26424375E+001 -0.37668545E+001  0.11318287E+003
  0.13404154E+002  0.16329047E+002  0.10093001E+003
  0.18798949E+002  0.29869284E+002  0.88705688E+002
  0.23723711E+002  0.40990156E+002  0.76463689E+002
  0.26288670E+002  0.46487381E+002  0.64215331E+002
  0.26326512E+002  0.46465517E+002  0.51968539E+002
  0.23851043E+002  0.40921172E+002  0.39721067E+002
  0.19089659E+002  0.29715694E+002  0.27479148E+002
  0.13483350E+002  0.16290846E+002  0.15249350E+002
  0.41852248E+001 -0.20357933E+001  0.30033849E+001
  0.27382541E+001 -0.38121844E+001  0.11318283E+003
  0.13869308E+002  0.16089276E+002  0.10093641E+003
  0.19501671E+002  0.29518294E+002  0.88701638E+002
  0.24623761E+002  0.40546304E+002  0.76458885E+002
  0.27290080E+002  0.46001155E+002  0.64214167E+002
  0.27328628E+002  0.45980387E+002  0.51969403E+002
  0.24751488E+002  0.40477937E+002  0.39724704E+002
  0.19791065E+002  0.29362880E+002  0.27482486E+002
  0.13947382E+002  0.16048793E+002  0.15245845E+002
  0.43197616E+001 -0.21079407E+001  0.30014787E+001
  0.28369176E+001 -0.38556308E+001  0.11318282E+003
  0.14329504E+002  0.15843202E+002  0.10093959E+003
  0.20199126E+002  0.29161979E+002  0.88698742E+002
  0.25517522E+002  0.40093645E+002  0.76456067E+002
  0.28282390E+002  0.45500587E+002  0.64213090E+002
  0.28320803E+002  0.45479443E+002  0.51970001E+002
  0.25644320E+002  0.40023610E+002  0.39726956E+002
  0.20486528E+002  0.29002608E+002  0.27484504E+002
  0.14406417E+002  0.15800847E+002  0.15243340E+002
  0.44530194E+001 -0.21793731E+001  0.30003643E+001
  0.29379877E+001 -0.38970799E+001  0.11318282E+003
  0.14784719E+002  0.15591734E+002  0.10094035E+003
  0.20892143E+002  0.28800869E+002  0.88697852E+002
  0.26406066E+002  0.39634049E+002  0.76455281E+002
  0.29267864E+002  0.44990221E+002  0.64212713E+002
  0.29305850E+002  0.44968296E+002  0.51970190E+002
  0.26531493E+002  0.39561654E+002  0.39727615E+002
  0.21176845E+002  0.28636489E+002  0.27485057E+002
  0.14860705E+002  0.15547852E+002  0.15242548E+002
  0.45850825E+001 -0.22499841E+001  0.30000580E+001
  0.22148872E-001  0.38047705E-002  0.11318210E+003
  0.11534773E+002 -0.17014449E+002  0.10092475E+003
  0.19674814E+002 -0.29032645E+002  0.88707059E+002
  0.26494837E+002 -0.39086512E+002  0.76468958E+002
  0.29896006E+002 -0.44100549E+002  0.64217486E+002
  0.29894448E+002 -0.44097093E+002  0.51969388E+002
  0.26491843E+002 -0.39077230E+002  0.39721347E+002
  0.19673583E+002 -0.29021614E+002  0.27480189E+002
  0.11531613E+002 -0.17011794E+002  0.15252352E+002
  0.13959996E-003  0.30707559E-004  0.30000914E+001
 -0.19413334E+001 -0.40452368E+001  0.11318179E+003
  0.78850488E+001 -0.19493857E+002  0.10092728E+003
  0.17109978E+002 -0.30768217E+002  0.88708292E+002
  0.24461295E+002 -0.40462752E+002  0.76469029E+002
  0.28029715E+002 -0.45367625E+002  0.64217596E+002
  0.27992443E+002 -0.45389650E+002  0.51968826E+002
  0.24338323E+002 -0.40534579E+002  0.39720625E+002
  0.16837680E+002 -0.30943207E+002  0.27480271E+002
  0.78082786E+001 -0.19539003E+002  0.15252370E+002
 -0.37245542E+001 -0.25251670E+001  0.29944099E+001
 -0.18529144E+001 -0.40108687E+001  0.11318225E+003
  0.77008177E+001 -0.19629860E+002  0.10093319E+003
  0.16721302E+002 -0.31063694E+002  0.88704638E+002
  0.23892649E+002 -0.40886588E+002  0.76463129E+002
  0.27373832E+002 -0.45860051E+002  0.64216027E+002
  0.27336862E+002 -0.45883385E+002  0.51969251E+002
  0.23769877E+002 -0.40961386E+002  0.39723779E+002
  0.16445693E+002 -0.31238020E+002  0.27482239E+002
  0.76255768E+001 -0.19675424E+002  0.15249049E+002
 -0.35976703E+001 -0.24575229E+001  0.29965721E+001
 -0.17600677E+001 -0.39747722E+001  0.11318258E+003
  0.75159444E+001 -0.19760195E+002  0.10093759E+003
  0.16327389E+002 -0.31349540E+002  0.88701158E+002
  0.23317513E+002 -0.41298088E+002  0.76458677E+002
  0.26709192E+002 -0.46335699E+002  0.64214417E+002
  0.26672146E+002 -0.46359169E+002  0.51969643E+002
  0.23194400E+002 -0.41373693E+002  0.39725982E+002
  0.16048684E+002 -0.31521926E+002  0.27483771E+002
  0.74410405E+001 -0.19805737E+002  0.15245640E+002
 -0.34694838E+001 -0.23890607E+001  0.29984250E+001
 -0.16627143E+001 -0.39368491E+001  0.11318273E+003
  0.73299478E+001 -0.19884888E+002  0.10093978E+003
  0.15929280E+002 -0.31627019E+002  0.88698628E+002
  0.22737231E+002 -0.41698422E+002  0.76456046E+002
  0.26037440E+002 -0.46796468E+002  0.64213162E+002
  0.25999937E+002 -0.46819220E+002  0.51970017E+002
  0.22613110E+002 -0.41772911E+002  0.39727250E+002
  0.15647563E+002 -0.31796033E+002  0.27484791E+002
  0.72546644E+001 -0.19929879E+002  0.15243306E+002
 -0.33400324E+001 -0.23198438E+001  0.29994654E+001
 -0.15620402E+001 -0.38971389E+001  0.11318277E+003
  0.71424549E+001 -0.20003975E+002  0.10094028E+003
  0.15528198E+002 -0.31897717E+002  0.88697826E+002
  0.22153103E+002 -0.42089584E+002  0.76455315E+002
  0.25360785E+002 -0.47246059E+002  0.64212754E+002
  0.25322804E+002 -0.47267991E+002  0.51970150E+002
  0.22027688E+002 -0.42161996E+002  0.39727588E+002
  0.15243489E+002 -0.32062085E+002  0.27485083E+002
  0.70664633E+001 -0.20047838E+002  0.15242600E+002
 -0.32092353E+001 -0.22499704E+001  0.29997379E+001
 -0.99451460E-001 -0.70847222E-002  0.15120411E+002
 -0.24324349E+001 -0.17539157E+000  0.15120196E+002
 -0.47653729E+001 -0.34436235E+000  0.15120298E+002
 -0.70982820E+001 -0.51370630E+000  0.15120273E+002
 -0.94313090E+001 -0.68137746E+000  0.15121712E+002
 -0.11764230E+002 -0.85125814E+000  0.15121916E+002
 -0.14097158E+002 -0.10200851E+001  0.15121462E+002
 -0.16430076E+002 -0.11889172E+001  0.15120718E+002
 -0.18762994E+002 -0.13577342E+001  0.15119838E+002
 -0.21095906E+002 -0.15265173E+001  0.15119009E+002
[...]
CELL_DATA 936
SCALARS Gamma double
LOOKUP_TABLE default
 -0.81856091E+000
  0.81856091E+000
 -0.21541708E+002
  0.20723147E+002
 -0.18744617E+002
 -0.27970910E+001
 -0.18631326E+002
 -0.11329133E+000
 -0.19216129E+002
  0.58480337E+000
 -0.18418026E+002
 -0.79810264E+000
 -0.18723285E+002
  0.30525857E+000
 -0.21655029E+002
  0.29317436E+001
 -0.11135103E+002
 -0.10519925E+002
 -0.11135103E+002
  0.00000000E+000
  0.81856091E+000
  0.00000000E+000
  0.20723147E+002
  0.00000000E+000
 -0.27970910E+001
  0.00000000E+000
 -0.11329133E+000
  0.00000000E+000
  0.58480337E+000
  0.00000000E+000
 -0.79810264E+000
  0.00000000E+000
  0.30525857E+000
  0.00000000E+000
  0.29317436E+001
  0.00000000E+000
 -0.10519925E+002
 -0.11135103E+002
  0.64872544E+000
  0.16983547E+000
  0.17225887E+002
  0.41459856E+001
  0.14985761E+002
 -0.55696483E+000
  0.14823631E+002
  0.48838483E-001
  0.15253043E+002
  0.15539132E+000
  0.14596251E+002
 -0.14131106E+000
  0.14877618E+002
  0.23892066E-001
  0.17257262E+002
  0.55209979E+000
  0.88586096E+001
 -0.21212729E+001
 -0.22764939E+001
  0.16779964E+000
  0.20358333E-002
  0.42656912E+001
  0.48093971E-001
  0.37150864E+001
 -0.63599538E-002
  0.37625785E+001
  0.13463489E-002
  0.39157448E+001
  0.22250323E-002
  0.37758405E+001
 -0.14067937E-002
  0.37998844E+001
 -0.15175484E-003
  0.43459621E+001
  0.60219938E-002
  0.22494345E+001
 -0.24745317E-001
 -0.27059359E-001
  0.20358333E-002
  0.00000000E+000
  0.00000000E+000
  0.50129804E-001
 -0.00000000E+000
  0.00000000E+000
  0.43769850E-001
 -0.00000000E+000
  0.00000000E+000
  0.45116199E-001
 -0.00000000E+000
  0.00000000E+000
  0.47341231E-001
 -0.00000000E+000
  0.00000000E+000
  0.45934438E-001
 -0.00000000E+000
  0.00000000E+000
  0.45782683E-001
 -0.00000000E+000
  0.00000000E+000
  0.51804677E-001
 -0.00000000E+000
  0.00000000E+000
  0.27059359E-001
 -0.00000000E+000
  0.00000000E+000
 -0.00000000E+000
  0.15959946E+002
 -0.15959946E+002
  0.89899100E+001
  0.69700364E+001
  0.56573961E+001
  0.33325139E+001
  0.72274289E+001
 -0.15700328E+001
  0.89183685E+001
 -0.16909396E+001
  0.81136264E+001
  0.80474206E+000
  0.70842443E+001
  0.10293821E+001
  0.95628548E+001
 -0.24786105E+001
  0.98835952E+001
 -0.32074043E+000
  0.98835952E+001
  0.00000000E+000
 -0.15959946E+002
  0.00000000E+000
  0.69700364E+001
  0.00000000E+000
  0.33325139E+001
  0.00000000E+000
 -0.15700328E+001
  0.00000000E+000
 -0.16909396E+001
  0.00000000E+000
  0.80474206E+000
  0.00000000E+000
  0.10293821E+001
  0.00000000E+000
 -0.24786105E+001
  0.00000000E+000
 -0.32074043E+000
  0.98835952E+001
 -0.12734296E+002
 -0.32256505E+001
 -0.70919756E+001
  0.13277161E+001
 -0.43707978E+001
  0.61133605E+000
 -0.56838027E+001
 -0.25702784E+000
 -0.71110926E+001
 -0.26364967E+000
 -0.64318326E+001
  0.12548201E+000
 -0.55503317E+001
  0.14788120E+000
 -0.75239556E+001
 -0.50498659E+000
 -0.78048641E+001
 -0.39831881E-001
  0.20787311E+001
 -0.31878192E+001
 -0.37831218E-001
 -0.18745597E+001
  0.14456477E-001
 -0.12697514E+001
  0.65277625E-002
 -0.15248765E+001
 -0.19027177E-002
 -0.17864326E+001
 -0.20935815E-002
 -0.16619089E+001
  0.95830135E-003
 -0.15148379E+001
  0.81028700E-003
 -0.20138719E+001
 -0.59526030E-002
 -0.20534908E+001
 -0.21301071E-003
  0.25240302E-001
 -0.37831218E-001
 -0.00000000E+000
 -0.00000000E+000
 -0.23374740E-001
 -0.00000000E+000
 -0.00000000E+000
 -0.16846978E-001
 -0.00000000E+000
 -0.00000000E+000
 -0.18749696E-001
 -0.00000000E+000
 -0.00000000E+000
 -0.20843277E-001
 -0.00000000E+000
 -0.00000000E+000
 -0.19884976E-001
 -0.00000000E+000
 -0.00000000E+000
 -0.19074689E-001
 -0.00000000E+000
 -0.00000000E+000
 -0.25027292E-001
 -0.00000000E+000
 -0.00000000E+000
 -0.25240302E-001
 -0.00000000E+000
 -0.00000000E+000
  0.00000000E+000
  0.55517334E+001
 -0.55517334E+001
  0.11524444E+002
 -0.59727103E+001
  0.84253451E+001
  0.30990986E+001
  0.98669053E+001
 -0.14415602E+001
  0.11443381E+002
 -0.15764755E+001
  0.10857547E+002
  0.58583389E+000
  0.10153410E+002
  0.70413672E+000
  0.12534465E+002
 -0.23810543E+001
  0.33987728E+001
  0.91356917E+001
  0.33987728E+001
  0.00000000E+000
 -0.55517334E+001
  0.00000000E+000
 -0.59727103E+001
  0.00000000E+000
  0.30990986E+001
  0.00000000E+000
 -0.14415602E+001
  0.00000000E+000
 -0.15764755E+001
  0.00000000E+000
  0.58583389E+000
  0.00000000E+000
  0.70413672E+000
  0.00000000E+000
 -0.23810543E+001
  0.00000000E+000
  0.91356917E+001
  0.33987728E+001
 -0.44720828E+001
 -0.10796506E+001
 -0.92379513E+001
 -0.12068418E+001
 -0.67130300E+001
  0.57417728E+000
 -0.79160876E+001
 -0.23850265E+000
 -0.92326540E+001
 -0.25990912E+000
 -0.87457936E+001
  0.98973503E-001
 -0.81446344E+001
  0.10297754E+000
 -0.10049450E+002
 -0.47623825E+000
 -0.27284752E+001
  0.18147164E+001
  0.67029763E+000
 -0.10674822E+001
 -0.12168383E-001
 -0.22601309E+001
 -0.14193089E-001
 -0.16920466E+001
  0.60929708E-002
 -0.19286953E+001
 -0.18539712E-002
 -0.21864031E+001
 -0.22012529E-002
 -0.20882739E+001
  0.84422521E-003
 -0.19858451E+001
  0.54879671E-003
 -0.24566168E+001
 -0.54665826E-002
 -0.66265053E+000
  0.20750192E-001
  0.76470951E-002
 -0.12168383E-001
 -0.00000000E+000
 -0.00000000E+000
 -0.26361473E-001
 -0.00000000E+000
 -0.00000000E+000
 -0.20268502E-001
 -0.00000000E+000
 -0.00000000E+000
 -0.22122473E-001
 -0.00000000E+000
 -0.00000000E+000
 -0.24323726E-001
 -0.00000000E+000
 -0.00000000E+000
 -0.23479501E-001
 -0.00000000E+000
 -0.00000000E+000
 -0.22930704E-001
 -0.00000000E+000
 -0.00000000E+000
 -0.28397287E-001
 -0.00000000E+000
 -0.00000000E+000
 -0.76470951E-002
 -0.00000000E+000
 -0.00000000E+000
  0.00000000E+000
  0.14726060E-001
 -0.14726060E-001
  0.25546254E+000
 -0.24073648E+000
  0.25032686E-001
  0.23042985E+000
 -0.11039494E-001
  0.36072180E-001
 -0.89866531E-001
  0.78827037E-001
 -0.13344807E+000
  0.43581542E-001
 -0.16684092E+000
  0.33392851E-001
 -0.19389768E+000
  0.27056754E-001
 -0.30599914E+000
  0.11210146E+000
 -0.30599914E+000
  0.00000000E+000
 -0.14726060E-001
  0.00000000E+000
 -0.24073648E+000
  0.00000000E+000
  0.23042985E+000
  0.00000000E+000
  0.36072180E-001
  0.00000000E+000
  0.78827037E-001
  0.00000000E+000
  0.43581542E-001
  0.00000000E+000
  0.33392851E-001
  0.00000000E+000
  0.27056754E-001
  0.00000000E+000
  0.11210146E+000
 -0.30599914E+000
  0.11591051E-002
 -0.15885165E-001
 -0.21969885E+000
 -0.19878529E-001
 -0.24307034E-001
  0.35038042E-001
  0.29444707E-002
  0.88206752E-002
  0.68706243E-001
  0.13065265E-001
  0.10477999E+000
  0.75077901E-002
  0.13285900E+000
  0.53138460E-002
  0.15551724E+000
  0.43985183E-002
  0.24588546E+000
  0.21733232E-001
 -0.60113674E-001
 -0.15695824E-001
 -0.18934076E-003
 -0.35522716E-001
 -0.51637527E-004
 -0.78145232E-003
  0.29677866E-003
  0.79265796E-002
  0.11264327E-003
  0.20867785E-001
  0.12405976E-003
  0.28305413E-001
  0.70162431E-004
  0.33575191E-001
  0.44067848E-004
  0.37937774E-001
  0.35934829E-004
  0.59422186E-001
  0.24882016E-003
 -0.69148868E-003
 -0.18934076E-003
 -0.00000000E+000
 -0.00000000E+000
 -0.24097829E-003
 -0.00000000E+000
 -0.00000000E+000
  0.55800373E-004
  0.00000000E+000
  0.00000000E+000
  0.16844364E-003
 -0.00000000E+000
  0.00000000E+000
  0.29250341E-003
 -0.00000000E+000
  0.00000000E+000
  0.36266584E-003
 -0.00000000E+000
  0.00000000E+000
  0.40673368E-003
 -0.00000000E+000
  0.00000000E+000
  0.44266851E-003
 -0.00000000E+000
  0.00000000E+000
  0.69148868E-003
 -0.00000000E+000
  0.00000000E+000
 -0.00000000E+000
 -0.10375385E+000
  0.10375385E+000
 -0.11609012E+000
  0.12336271E-001
 -0.27967427E+000
  0.16358415E+000
 -0.38375364E+000
  0.10407937E+000
 -0.46454003E+000
  0.80786391E-001
 -0.47987080E+000
  0.15330773E-001
 -0.46751517E+000
 -0.12355634E-001
 -0.40231112E+000
 -0.65204050E-001
 -0.34672148E+000
 -0.55589640E-001
 -0.34672148E+000
  0.00000000E+000
  0.10375385E+000
  0.00000000E+000
  0.12336271E-001
  0.00000000E+000
  0.16358415E+000
  0.00000000E+000
  0.10407937E+000
  0.00000000E+000
  0.80786391E-001
  0.00000000E+000
  0.15330773E-001
  0.00000000E+000
 -0.12355634E-001
  0.00000000E+000
 -0.65204050E-001
  0.00000000E+000
 -0.55589640E-001
 -0.34672148E+000
  0.89847100E-001
  0.13906748E-001
  0.97873087E-001
  0.43102834E-002
  0.23445350E+000
  0.27003731E-001
  0.31918700E+000
  0.19345879E-001
  0.38308300E+000
  0.16890385E-001
  0.39173119E+000
  0.66825889E-002
  0.37732871E+000
  0.20468383E-002
  0.32045489E+000
 -0.83302305E-002
  0.26895667E+000
 -0.40914188E-002
 -0.77764804E-001
  0.13843415E-001
  0.63332842E-004
  0.18160081E-001
 -0.63821958E-005
  0.44992030E-001
  0.17178095E-003
  0.64198178E-001
  0.13973104E-003
  0.80934843E-001
  0.15372039E-003
  0.87520845E-001
  0.96587215E-004
  0.89482047E-001
  0.85635798E-004
  0.81146095E-001
  0.57217056E-005
  0.76990012E-001
  0.64664345E-004
 -0.77479209E-003
  0.63332842E-004
 -0.00000000E+000
 -0.00000000E+000
  0.56950646E-004
 -0.00000000E+000
 -0.00000000E+000
  0.22873159E-003
 -0.00000000E+000
 -0.00000000E+000
  0.36846263E-003
 -0.00000000E+000
 -0.00000000E+000
  0.52218302E-003
 -0.00000000E+000
 -0.00000000E+000
  0.61877024E-003
 -0.00000000E+000
 -0.00000000E+000
  0.70440604E-003
  0.00000000E+000
  0.00000000E+000
  0.71012774E-003
 -0.00000000E+000
  0.00000000E+000
  0.77479209E-003
 -0.00000000E+000
  0.00000000E+000
 -0.00000000E+000
  0.12182447E+001
 -0.12182447E+001
  0.21819471E+001
 -0.96370237E+000
  0.11173129E+001
  0.10646342E+001
 -0.41154058E+000
  0.15288535E+001
 -0.39758319E+000
 -0.13957393E-001
 -0.51637308E+000
  0.11878989E+000
 -0.52222976E+000
  0.58566755E-002
 -0.45174983E+000
 -0.70479926E-001
 -0.34393307E+000
 -0.10781676E+000
 -0.34393307E+000
  0.00000000E+000
 -0.12182447E+001
  0.00000000E+000
 -0.96370237E+000
  0.00000000E+000
  0.10646342E+001
  0.00000000E+000
  0.15288535E+001
  0.00000000E+000
 -0.13957393E-001
  0.00000000E+000
  0.11878989E+000
  0.00000000E+000
  0.58566755E-002
  0.00000000E+000
 -0.70479926E-001
  0.00000000E+000
 -0.10781676E+000
 -0.34393307E+000
 -0.10586385E+001
 -0.15960625E+000
 -0.17904075E+001
 -0.23193333E+000
 -0.87837968E+000
  0.15260639E+000
  0.34081773E+000
  0.30965604E+000
  0.32756731E+000
 -0.70696891E-003
  0.42125617E+000
  0.25101024E-001
  0.42179459E+000
  0.53182568E-002
  0.36141177E+000
 -0.10097102E-001
  0.26858358E+000
 -0.14988574E-001
 -0.75349489E-001
 -0.15857867E+000
 -0.10275771E-002
 -0.38833566E+000
 -0.21763449E-002
 -0.23639612E+000
  0.66684911E-003
  0.70133890E-001
  0.31260352E-002
  0.69548593E-001
 -0.12167225E-003
  0.94369440E-001
  0.28017772E-003
  0.99590135E-001
  0.97561563E-004
  0.89527236E-001
 -0.34201940E-004
  0.74622044E-001
 -0.83382695E-004
 -0.72744468E-003
 -0.10275771E-002
 -0.00000000E+000
 -0.00000000E+000
 -0.32039221E-002
 -0.00000000E+000
 -0.00000000E+000
 -0.25370730E-002
 -0.00000000E+000
 -0.00000000E+000
  0.58896227E-003
  0.00000000E+000
  0.00000000E+000
  0.46729003E-003
 -0.00000000E+000
  0.00000000E+000
  0.74746775E-003
 -0.00000000E+000
  0.00000000E+000
  0.84502932E-003
 -0.00000000E+000
  0.00000000E+000
  0.81082738E-003
 -0.00000000E+000
  0.00000000E+000
  0.72744468E-003
 -0.00000000E+000
  0.00000000E+000
 -0.00000000E+000
 -0.48702084E+000
  0.48702084E+000
 -0.33482863E+000
 -0.15219220E+000
 -0.62476511E+000
  0.28993648E+000
 -0.82382054E+000
  0.19905543E+000
 -0.10187290E+001
  0.19490846E+000
 -0.12766551E+001
  0.25792610E+000
 -0.14870567E+001
  0.21040160E+000
 -0.15528715E+001
  0.65814830E-001
 -0.17896260E+001
  0.23675448E+000
 -0.17896260E+001
  0.00000000E+000
  0.48702084E+000
  0.00000000E+000
 -0.15219220E+000
  0.00000000E+000
  0.28993648E+000
  0.00000000E+000
  0.19905543E+000
  0.00000000E+000
  0.19490846E+000
  0.00000000E+000
  0.25792610E+000
  0.00000000E+000
  0.21040160E+000
  0.00000000E+000
  0.65814830E-001
  0.00000000E+000
  0.23675448E+000
 -0.17896260E+001
  0.39524310E+000
  0.91777741E-001
  0.28427754E+000
 -0.41226645E-001
  0.52408983E+000
  0.50124186E-001
  0.69652740E+000
  0.26617857E-001
  0.86250648E+000
  0.28929383E-001
  0.10856378E+001
  0.34794740E-001
  0.12661759E+001
  0.29863566E-001
  0.13238886E+001
  0.81020706E-002
  0.15341435E+001
  0.26499582E-001
 -0.25548248E+000
  0.90766224E-001
  0.10115168E-002
  0.50283900E-001
 -0.74432121E-003
  0.99817298E-001
  0.59078817E-003
  0.12629913E+000
  0.13602636E-003
  0.15504503E+000
  0.18348249E-003
  0.18965818E+000
  0.18158900E-003
  0.21936837E+000
  0.15338020E-003
  0.22746245E+000
  0.79856616E-005
  0.25397006E+000
 -0.80285949E-005
 -0.15124189E-002
  0.10115168E-002
  0.00000000E+000
  0.00000000E+000
  0.26719562E-003
 -0.00000000E+000
  0.00000000E+000
  0.85798379E-003
 -0.00000000E+000
  0.00000000E+000
  0.99401015E-003
 -0.00000000E+000
  0.00000000E+000
  0.11774926E-002
 -0.00000000E+000
  0.00000000E+000
  0.13590817E-002
 -0.00000000E+000
  0.00000000E+000
  0.15124619E-002
 -0.00000000E+000
  0.00000000E+000
  0.15204475E-002
 -0.00000000E+000
  0.00000000E+000
  0.15124189E-002
 -0.00000000E+000
  0.00000000E+000
 -0.00000000E+000
 -0.28163725E+000
  0.28163725E+000
 -0.15355853E+000
 -0.12807873E+000
  0.23842222E-001
 -0.17740075E+000
  0.19545947E+000
 -0.17161725E+000
  0.38968282E+000
 -0.19422335E+000
  0.56969411E+000
 -0.18001129E+000
  0.74006223E+000
 -0.17036812E+000
  0.81537047E+000
 -0.75308235E-001
  0.10351686E+001
 -0.21979814E+000
  0.10351686E+001
  0.00000000E+000
  0.28163725E+000
  0.00000000E+000
 -0.12807873E+000
  0.00000000E+000
 -0.17740075E+000
  0.00000000E+000
 -0.17161725E+000
  0.00000000E+000
 -0.19422335E+000
  0.00000000E+000
 -0.18001129E+000
  0.00000000E+000
 -0.17036812E+000
  0.00000000E+000
 -0.75308235E-001
  0.00000000E+000
 -0.21979814E+000
  0.10351686E+001
  0.22309901E+000
  0.58538243E-001
  0.10441774E+000
 -0.93974613E-002
 -0.52605943E-001
 -0.20377061E-001
 -0.20052039E+000
 -0.23702803E-001
 -0.36249359E+000
 -0.32250146E-001
 -0.50971649E+000
 -0.32788387E-001
 -0.64595517E+000
 -0.34129441E-001
 -0.70040404E+000
 -0.20859365E-001
 -0.87786150E+000
 -0.42340690E-001
  0.15730711E+000
  0.57766318E-001
  0.77192537E-003
  0.48388134E-001
 -0.19277702E-004
  0.28034192E-001
 -0.23118700E-004
  0.44529298E-002
 -0.12154133E-003
 -0.27553822E-001
 -0.24339420E-003
 -0.60056554E-001
 -0.28565522E-003
 -0.93844979E-001
 -0.34101608E-003
 -0.11442138E+000
 -0.28296809E-003
 -0.15634496E+000
 -0.41710465E-003
  0.96215060E-003
  0.77192537E-003
  0.00000000E+000
  0.00000000E+000
  0.75264767E-003
 -0.00000000E+000
  0.00000000E+000
  0.72952897E-003
 -0.00000000E+000
  0.00000000E+000
  0.60798763E-003
 -0.00000000E+000
  0.00000000E+000
  0.36459343E-003
 -0.00000000E+000
  0.00000000E+000
  0.78938216E-004
 -0.00000000E+000
  0.00000000E+000
 -0.26207786E-003
 -0.00000000E+000
  0.00000000E+000
 -0.54504595E-003
 -0.00000000E+000
  0.00000000E+000
 -0.96215060E-003
 -0.00000000E+000
  0.00000000E+000
 -0.00000000E+000
  0.11247786E+001
 -0.11247786E+001
  0.63463698E+000
  0.49014161E+000
 -0.61901962E+000
  0.12536566E+001
  0.32960537E+000
 -0.94862499E+000
  0.34410396E+000
 -0.14498583E-001
  0.53915844E+000
 -0.19505448E+000
  0.67564494E+000
 -0.13648650E+000
  0.72855705E+000
 -0.52912115E-001
  0.84767827E+000
 -0.11912122E+000
  0.84767827E+000
  0.00000000E+000
 -0.11247786E+001
  0.00000000E+000
  0.49014161E+000
  0.00000000E+000
  0.12536566E+001
  0.00000000E+000
 -0.94862499E+000
  0.00000000E+000
 -0.14498583E-001
  0.00000000E+000
 -0.19505448E+000
  0.00000000E+000
 -0.13648650E+000
  0.00000000E+000
 -0.52912115E-001
  0.00000000E+000
 -0.11912122E+000
  0.84767827E+000
 -0.90050424E+000
 -0.22427435E+000
 -0.38761761E+000
 -0.22745021E-001
  0.68286718E+000
  0.18317181E+000
 -0.31258589E+000
  0.46828072E-001
 -0.30611823E+000
 -0.20966235E-001
 -0.47585105E+000
 -0.25321661E-001
 -0.58572730E+000
 -0.26610256E-001
 -0.62491982E+000
 -0.13719593E-001
 -0.72128149E+000
 -0.22759551E-001
  0.12639678E+000
 -0.22082331E+000
 -0.34510427E-002
 -0.24244710E+000
 -0.11212316E-002
 -0.61478931E-001
  0.22036456E-002
 -0.17323617E-001
  0.26727576E-002
 -0.37931311E-001
 -0.35854081E-003
 -0.63160081E-001
 -0.92890887E-004
 -0.89513516E-001
 -0.25682024E-003
 -0.10306062E+000
 -0.17248752E-003
 -0.12561490E+000
 -0.20527117E-003
  0.78188161E-003
 -0.34510427E-002
 -0.00000000E+000
 -0.00000000E+000
 -0.45722743E-002
 -0.00000000E+000
 -0.00000000E+000
 -0.23686286E-002
 -0.00000000E+000
 -0.00000000E+000
  0.30412901E-003
  0.00000000E+000
  0.00000000E+000
 -0.54411804E-004
 -0.00000000E+000
  0.00000000E+000
 -0.14730269E-003
 -0.00000000E+000
  0.00000000E+000
 -0.40412293E-003
 -0.00000000E+000
  0.00000000E+000
 -0.57661044E-003
 -0.00000000E+000
  0.00000000E+000
 -0.78188161E-003
 -0.00000000E+000
  0.00000000E+000
 -0.00000000E+000
SCALARS Epsilon double
LOOKUP_TABLE default
  0.23921366E+002
  0.23921366E+002
  0.18971836E+002
  0.21446601E+002
  0.17240385E+002
  0.18106111E+002
  0.13664467E+002
  0.15452426E+002
  0.12242545E+002
  0.12953506E+002
  0.13664467E+002
  0.12953506E+002
  0.17240385E+002
  0.15452426E+002
  0.18971836E+002
  0.18106111E+002
  0.23921366E+002
  0.21446601E+002
  0.23921366E+002
  0.23921366E+002
  0.23921366E+002
  0.18971836E+002
  0.21446601E+002
  0.17240385E+002
  0.18106111E+002
  0.13664467E+002
  0.15452426E+002
  0.12242545E+002
  0.12953506E+002
  0.13664467E+002
  0.12953506E+002
  0.17240385E+002
  0.15452426E+002
  0.18971836E+002
  0.18106111E+002
  0.23921366E+002
  0.21446601E+002
  0.23921366E+002
  0.23921366E+002
  0.23921366E+002
  0.18971836E+002
  0.21446601E+002
  0.17240385E+002
  0.18106111E+002
  0.13664467E+002
  0.15452426E+002
  0.12242545E+002
  0.12953506E+002
  0.13664467E+002
  0.12953506E+002
  0.17240385E+002
  0.15452426E+002
  0.18971836E+002
  0.18106111E+002
  0.23921366E+002
  0.21446601E+002
  0.23921366E+002
  0.23921381E+002
  0.23921396E+002
  0.18971855E+002
  0.21446636E+002
  0.17240406E+002
  0.18106151E+002
  0.13664494E+002
  0.15452474E+002
  0.12242576E+002
  0.12953563E+002
  0.13664494E+002
  0.12953563E+002
  0.17240406E+002
  0.15452474E+002
  0.18971855E+002
  0.18106151E+002
  0.23921381E+002
  0.21446636E+002
  0.23921396E+002
  0.23921412E+002
  0.23921427E+002
  0.23921427E+002
  0.18971894E+002
  0.21446670E+002
  0.18971913E+002
  0.17240449E+002
  0.18106192E+002
  0.17240470E+002
  0.13664548E+002
  0.15452523E+002
  0.13664575E+002
  0.12242636E+002
  0.12953620E+002
  0.12242666E+002
  0.13664548E+002
  0.12953620E+002
  0.13664575E+002
  0.17240449E+002
  0.15452523E+002
  0.17240470E+002
  0.18971894E+002
  0.18106192E+002
  0.18971913E+002
  0.23921412E+002
  0.21446670E+002
  0.23921427E+002
  0.23921427E+002
  0.23921366E+002
  0.23921366E+002
  0.18971836E+002
  0.21446601E+002
  0.17240385E+002
  0.18106111E+002
  0.13664467E+002
  0.15452426E+002
  0.12242545E+002
  0.12953506E+002
  0.13664467E+002
  0.12953506E+002
  0.17240385E+002
  0.15452426E+002
  0.18971836E+002
  0.18106111E+002
  0.23921366E+002
  0.21446601E+002
  0.23921366E+002
  0.23921366E+002
  0.23921366E+002
  0.18971836E+002
  0.21446601E+002
  0.17240385E+002
  0.18106111E+002
  0.13664467E+002
  0.15452426E+002
  0.12242545E+002
  0.12953506E+002
  0.13664467E+002
  0.12953506E+002
  0.17240385E+002
  0.15452426E+002
  0.18971836E+002
  0.18106111E+002
  0.23921366E+002
  0.21446601E+002
  0.23921366E+002
  0.23921366E+002
  0.23921366E+002
  0.18971836E+002
  0.21446601E+002
  0.17240385E+002
  0.18106111E+002
  0.13664467E+002
  0.15452426E+002
  0.12242545E+002
  0.12953506E+002
  0.13664467E+002
  0.12953506E+002
  0.17240385E+002
  0.15452426E+002
  0.18971836E+002
  0.18106111E+002
  0.23921366E+002
  0.21446601E+002
  0.23921366E+002
  0.23921381E+002
  0.23921396E+002
  0.18971855E+002
  0.21446636E+002
  0.17240406E+002
  0.18106151E+002
  0.13664494E+002
  0.15452474E+002