# vtk DataFile Version 2.0

ASCII
 
DATASET POLYDATA
POINTS 190 double
  0.34926978E+000  0.77832587E-001  0.11318060E+003
  0.15325386E+002 -0.13840538E+002  0.10073234E+003
  0.26051449E+002 -0.23801458E+002  0.88676407E+002
  0.35095433E+002 -0.32091841E+002  0.76566359E+002
  0.39431296E+002 -0.36008314E+002  0.64212061E+002
  0.39379518E+002 -0.35846563E+002  0.51940164E+002
  0.34992735E+002 -0.31821853E+002  0.39641875E+002
  0.25973488E+002 -0.23663016E+002  0.27411630E+002
  0.15181285E+002 -0.13852501E+002  0.15270111E+002
  0.15741017E-003  0.26351259E-004  0.30001956E+001
 -0.60528170E+000 -0.43196449E+001  0.11314861E+003
  0.12414163E+002 -0.17155983E+002  0.10075604E+003
  0.23940990E+002 -0.26067737E+002  0.88699679E+002
  0.33403958E+002 -0.33871797E+002  0.76566276E+002
  0.37901430E+002 -0.37666031E+002  0.64208594E+002
  0.37827764E+002 -0.37543731E+002  0.51942979E+002
  0.33221582E+002 -0.33725673E+002  0.39643771E+002
  0.23654167E+002 -0.26184047E+002  0.27415321E+002
  0.12159152E+002 -0.17186675E+002  0.15270368E+002
 -0.30385603E+001 -0.33185628E+001  0.29439754E+001
 -0.54489865E+000 -0.43139804E+001  0.11315022E+003
  0.12246025E+002 -0.17373165E+002  0.10075164E+003
  0.23612925E+002 -0.26480279E+002  0.88697640E+002
  0.32928630E+002 -0.34441933E+002  0.76555820E+002
  0.37361562E+002 -0.38321908E+002  0.64209493E+002
  0.37294993E+002 -0.38214469E+002  0.51951483E+002
  0.32756425E+002 -0.34315573E+002  0.39659768E+002
  0.23332930E+002 -0.26600141E+002  0.27433085E+002
  0.12013410E+002 -0.17401212E+002  0.15271317E+002
 -0.29293673E+001 -0.32623172E+001  0.29439032E+001
 -0.48361889E+000 -0.43065163E+001  0.11315168E+003
  0.12075734E+002 -0.17584372E+002  0.10074970E+003
  0.23279523E+002 -0.26883577E+002  0.88694820E+002
  0.32444315E+002 -0.34999563E+002  0.76543704E+002
  0.36810027E+002 -0.38964128E+002  0.64209278E+002
  0.36749238E+002 -0.38871702E+002  0.51959640E+002
  0.32280447E+002 -0.34893487E+002  0.39676084E+002
  0.23004849E+002 -0.27007441E+002  0.27450160E+002
  0.11864529E+002 -0.17610356E+002  0.15273165E+002
 -0.28190252E+001 -0.32053061E+001  0.29399175E+001
 -0.42090732E+000 -0.42982775E+001  0.11315053E+003
  0.11902352E+002 -0.17789349E+002  0.10074619E+003
  0.22941050E+002 -0.27277714E+002  0.88691424E+002
  0.31951209E+002 -0.35544673E+002  0.76530368E+002
  0.36246848E+002 -0.39592443E+002  0.64207901E+002
  0.36190425E+002 -0.39514779E+002  0.51967839E+002
  0.31793796E+002 -0.35458886E+002  0.39692412E+002
  0.22670451E+002 -0.27406073E+002  0.27466079E+002
  0.11712229E+002 -0.17813970E+002  0.15276034E+002
 -0.27075874E+001 -0.31475873E+001  0.29357175E+001
 -0.35808463E+000 -0.42849486E+001  0.11315511E+003
  0.11726577E+002 -0.17987525E+002  0.10074377E+003
  0.22597945E+002 -0.27662988E+002  0.88687963E+002
  0.31450426E+002 -0.36078269E+002  0.76516588E+002
  0.35673295E+002 -0.40207908E+002  0.64205786E+002
  0.35619757E+002 -0.40144257E+002  0.51975663E+002
  0.31297661E+002 -0.36012290E+002  0.39708168E+002
  0.22330088E+002 -0.27796020E+002  0.27480624E+002
  0.11556930E+002 -0.18012070E+002  0.15277839E+002
 -0.25955060E+001 -0.30882721E+001  0.29312241E+001
 -0.29520272E+000 -0.42652189E+001  0.11315994E+003
  0.11549428E+002 -0.18182309E+002  0.10073127E+003
  0.22250591E+002 -0.28039676E+002  0.88685163E+002
  0.30942277E+002 -0.36600635E+002  0.76502839E+002
  0.35090068E+002 -0.40811036E+002  0.64203283E+002
  0.35038579E+002 -0.40760881E+002  0.51982721E+002
  0.30793103E+002 -0.36554135E+002  0.39722719E+002
  0.21984419E+002 -0.28177616E+002  0.27492669E+002
  0.11398466E+002 -0.18203720E+002  0.15281449E+002
 -0.24826315E+001 -0.30276165E+001  0.29267763E+001
 -0.22933254E+000 -0.42481652E+001  0.11316187E+003
  0.11371703E+002 -0.18368395E+002  0.10073674E+003
  0.21899245E+002 -0.28407984E+002  0.88682764E+002
  0.30427785E+002 -0.37112795E+002  0.76489988E+002
  0.34498988E+002 -0.41403581E+002  0.64200946E+002
  0.34448931E+002 -0.41366152E+002  0.51988560E+002
  0.30281380E+002 -0.37085093E+002  0.39735062E+002
  0.21633724E+002 -0.28550828E+002  0.27502736E+002
  0.11237422E+002 -0.18390003E+002  0.15283499E+002
 -0.23681471E+001 -0.29669742E+001  0.29186108E+001
 -0.16202448E+000 -0.42279226E+001  0.11316480E+003
  0.11193793E+002 -0.18550086E+002  0.10074379E+003
  0.21544186E+002 -0.28768168E+002  0.88681352E+002
  0.29907828E+002 -0.37615747E+002  0.76478950E+002
  0.33902147E+002 -0.41987625E+002  0.64199432E+002
  0.33853118E+002 -0.41961939E+002  0.51992612E+002
  0.29763772E+002 -0.37605987E+002  0.39744240E+002
  0.21278471E+002 -0.28915872E+002  0.27510058E+002
  0.11072509E+002 -0.18570939E+002  0.15287309E+002
 -0.22530712E+001 -0.29045002E+001  0.29100290E+001
 -0.92636102E-001 -0.42057639E+001  0.11316638E+003
  0.11010254E+002 -0.18721667E+002  0.10076797E+003
  0.21185626E+002 -0.29120457E+002  0.88681235E+002
  0.29383250E+002 -0.38110479E+002  0.76470611E+002
  0.33302250E+002 -0.42565951E+002  0.64199224E+002
  0.33254239E+002 -0.42550983E+002  0.51994227E+002
  0.29241538E+002 -0.38117624E+002  0.39749531E+002
  0.20919027E+002 -0.29272900E+002  0.27514301E+002
  0.10905198E+002 -0.18745000E+002  0.15289101E+002
 -0.21367035E+001 -0.28414118E+001  0.29051110E+001
 -0.20016427E-001 -0.41836449E+001  0.11315910E+003
  0.10835596E+002 -0.18891961E+002  0.10077903E+003
  0.20823691E+002 -0.29465032E+002  0.88682763E+002
  0.28854629E+002 -0.38597729E+002  0.76465583E+002
  0.32697903E+002 -0.43137237E+002  0.64200886E+002
  0.32651093E+002 -0.43131919E+002  0.51993037E+002
  0.28715599E+002 -0.38620608E+002  0.39750211E+002
  0.20553160E+002 -0.29619558E+002  0.27519425E+002
  0.10735664E+002 -0.18913463E+002  0.15290348E+002
 -0.20186876E+001 -0.27776596E+001  0.29009369E+001
  0.54553164E-001 -0.41610434E+001  0.11315378E+003
  0.10651739E+002 -0.19052476E+002  0.10080611E+003
  0.20458283E+002 -0.29801876E+002  0.88685912E+002
  0.28321976E+002 -0.39077580E+002  0.76464159E+002
  0.32095133E+002 -0.43707278E+002  0.64204422E+002
  0.32050097E+002 -0.43710490E+002  0.51988986E+002
  0.28185957E+002 -0.39114680E+002  0.39746501E+002
  0.20186193E+002 -0.29960777E+002  0.27516754E+002
  0.10563292E+002 -0.19076900E+002  0.15285749E+002
 -0.18984197E+001 -0.27140923E+001  0.29016493E+001
  0.13143844E+000 -0.41328717E+001  0.11315371E+003
  0.10470576E+002 -0.19207573E+002  0.10084672E+003
  0.20084659E+002 -0.30126432E+002  0.88682784E+002
  0.27784812E+002 -0.39549510E+002  0.76465955E+002
  0.31489520E+002 -0.44271492E+002  0.64209609E+002
  0.31446620E+002 -0.44281924E+002  0.51982505E+002
  0.27652185E+002 -0.39599022E+002  0.39738851E+002
  0.19810653E+002 -0.30288943E+002  0.27518893E+002
  0.10389227E+002 -0.19234464E+002  0.15281616E+002
 -0.17757815E+001 -0.26505710E+001  0.29031398E+001
  0.21140827E+000 -0.41016669E+001  0.11315246E+003
  0.10288454E+002 -0.19358409E+002  0.10086055E+003
  0.19709549E+002 -0.30445270E+002  0.88684925E+002
  0.27241567E+002 -0.40011615E+002  0.76469747E+002
  0.30877495E+002 -0.44825546E+002  0.64215200E+002
  0.30836857E+002 -0.44841758E+002  0.51975046E+002
  0.27112338E+002 -0.40071383E+002  0.39729048E+002
  0.19433398E+002 -0.30610581E+002  0.27514502E+002
  0.10211902E+002 -0.19385825E+002  0.15279193E+002
 -0.16513763E+001 -0.25859715E+001  0.29053734E+001
  0.29522044E+000 -0.40685787E+001  0.11315014E+003
  0.10110441E+002 -0.19500754E+002  0.10088991E+003
  0.19330047E+002 -0.30755596E+002  0.88688345E+002
  0.26691431E+002 -0.40462681E+002  0.76474955E+002
  0.30256270E+002 -0.45365692E+002  0.64220798E+002
  0.30217767E+002 -0.45386184E+002  0.51967280E+002
  0.26565340E+002 -0.40530437E+002  0.39717898E+002
  0.19051588E+002 -0.30922608E+002  0.27508255E+002
  0.10035009E+002 -0.19530933E+002  0.15264429E+002
 -0.15251681E+001 -0.25204194E+001  0.29080615E+001
  0.38240114E+000 -0.40316072E+001  0.11314711E+003
  0.99265504E+001 -0.19637475E+002  0.10092463E+003
  0.18943439E+002 -0.31054516E+002  0.88688087E+002
  0.26133440E+002 -0.40901076E+002  0.76480631E+002
  0.29619897E+002 -0.45884132E+002  0.64225581E+002
  0.29582966E+002 -0.45907381E+002  0.51960287E+002
  0.26009823E+002 -0.40974401E+002  0.39707091E+002
  0.18662584E+002 -0.31221812E+002  0.27505170E+002
  0.98530710E+001 -0.19669068E+002  0.15255852E+002
 -0.13960983E+001 -0.24555126E+001  0.29226778E+001
  0.47441015E+000 -0.39933719E+001  0.11315158E+003
  0.97392058E+001 -0.19766568E+002  0.10095992E+003
  0.18553335E+002 -0.31345793E+002  0.88690908E+002
  0.25566918E+002 -0.41325051E+002  0.76486081E+002
  0.28969398E+002 -0.46380318E+002  0.64228875E+002
  0.28933312E+002 -0.46404897E+002  0.51954850E+002
  0.25444822E+002 -0.41401430E+002  0.39697207E+002
  0.18270260E+002 -0.31512152E+002  0.27498681E+002
  0.96673775E+001 -0.19799677E+002  0.15247300E+002
 -0.12665551E+001 -0.23882618E+001  0.29375484E+001
  0.57111839E+000 -0.39541235E+001  0.11315504E+003
  0.95477406E+001 -0.19884702E+002  0.10096556E+003
  0.18157042E+002 -0.31626389E+002  0.88691186E+002
  0.24992990E+002 -0.41735240E+002  0.76491339E+002
  0.28306238E+002 -0.46855097E+002  0.64231135E+002
  0.28270353E+002 -0.46879949E+002  0.51951156E+002
  0.24871158E+002 -0.41812348E+002  0.39689124E+002
  0.17873397E+002 -0.31792334E+002  0.27492235E+002
  0.94777928E+001 -0.19921346E+002  0.15244252E+002
 -0.11356853E+001 -0.23199364E+001  0.29418443E+001
  0.67144894E+000 -0.39140436E+001  0.11315780E+003
  0.93586844E+001 -0.20000107E+002  0.10097819E+003
  0.17759393E+002 -0.31902079E+002  0.88697046E+002
  0.24413019E+002 -0.42133450E+002  0.76495983E+002
  0.27635367E+002 -0.47314735E+002  0.64232730E+002
  0.27599451E+002 -0.47339489E+002  0.51948908E+002
  0.24290776E+002 -0.42209942E+002  0.39682754E+002
  0.17473248E+002 -0.32064120E+002  0.27485069E+002
  0.92841651E+001 -0.20033304E+002  0.15249570E+002
 -0.10049008E+001 -0.22496871E+001  0.29438921E+001
  
POLYGONS 162 810
      4      0      1     11     10
      4      1      2     12     11
      4      2      3     13     12
      4      3      4     14     13
      4      4      5     15     14
      4      5      6     16     15
      4      6      7     17     16
      4      7      8     18     17
      4      8      9     19     18
      4     10     11     21     20
      4     11     12     22     21
      4     12     13     23     22
      4     13     14     24     23
      4     14     15     25     24
      4     15     16     26     25
      4     16     17     27     26
      4     17     18     28     27
      4     18     19     29     28
      4     20     21     31     30
      4     21     22     32     31
      4     22     23     33     32
      4     23     24     34     33
      4     24     25     35     34
      4     25     26     36     35
      4     26     27     37     36
      4     27     28     38     37
      4     28     29     39     38
      4     30     31     41     40
      4     31     32     42     41
      4     32     33     43     42
      4     33     34     44     43
      4     34     35     45     44
      4     35     36     46     45
      4     36     37     47     46
      4     37     38     48     47
      4     38     39     49     48
      4     40     41     51     50
      4     41     42     52     51
      4     42     43     53     52
      4     43     44     54     53
      4     44     45     55     54
      4     45     46     56     55
      4     46     47     57     56
      4     47     48     58     57
      4     48     49     59     58
      4     50     51     61     60
      4     51     52     62     61
      4     52     53     63     62
      4     53     54     64     63
      4     54     55     65     64
      4     55     56     66     65
      4     56     57     67     66
      4     57     58     68     67
      4     58     59     69     68
      4     60     61     71     70
      4     61     62     72     71
      4     62     63     73     72
      4     63     64     74     73
      4     64     65     75     74
      4     65     66     76     75
      4     66     67     77     76
      4     67     68     78     77
      4     68     69     79     78
      4     70     71     81     80
      4     71     72     82     81
      4     72     73     83     82
      4     73     74     84     83
      4     74     75     85     84
      4     75     76     86     85
      4     76     77     87     86
      4     77     78     88     87
      4     78     79     89     88
      4     80     81     91     90
      4     81     82     92     91
      4     82     83     93     92
      4     83     84     94     93
      4     84     85     95     94
      4     85     86     96     95
      4     86     87     97     96
      4     87     88     98     97
      4     88     89     99     98
      4     90     91    101    100
      4     91     92    102    101
      4     92     93    103    102
      4     93     94    104    103
      4     94     95    105    104
      4     95     96    106    105
      4     96     97    107    106
      4     97     98    108    107
      4     98     99    109    108
      4    100    101    111    110
      4    101    102    112    111
      4    102    103    113    112
      4    103    104    114    113
      4    104    105    115    114
      4    105    106    116    115
      4    106    107    117    116
      4    107    108    118    117
      4    108    109    119    118
      4    110    111    121    120
      4    111    112    122    121
      4    112    113    123    122
      4    113    114    124    123
      4    114    115    125    124
      4    115    116    126    125
      4    116    117    127    126
      4    117    118    128    127
      4    118    119    129    128
      4    120    121    131    130
      4    121    122    132    131
      4    122    123    133    132
      4    123    124    134    133
      4    124    125    135    134
      4    125    126    136    135
      4    126    127    137    136
      4    127    128    138    137
      4    128    129    139    138
      4    130    131    141    140
      4    131    132    142    141
      4    132    133    143    142
      4    133    134    144    143
      4    134    135    145    144
      4    135    136    146    145
      4    136    137    147    146
      4    137    138    148    147
      4    138    139    149    148
      4    140    141    151    150
      4    141    142    152    151
      4    142    143    153    152
      4    143    144    154    153
      4    144    145    155    154
      4    145    146    156    155
      4    146    147    157    156
      4    147    148    158    157
      4    148    149    159    158
      4    150    151    161    160
      4    151    152    162    161
      4    152    153    163    162
      4    153    154    164    163
      4    154    155    165    164
      4    155    156    166    165
      4    156    157    167    166
      4    157    158    168    167
      4    158    159    169    168
      4    160    161    171    170
      4    161    162    172    171
      4    162    163    173    172
      4    163    164    174    173
      4    164    165    175    174
      4    165    166    176    175
      4    166    167    177    176
      4    167    168    178    177
      4    168    169    179    178
      4    170    171    181    180
      4    171    172    182    181
      4    172    173    183    182
      4    173    174    184    183
      4    174    175    185    184
      4    175    176    186    185
      4    176    177    187    186
      4    177    178    188    187
      4    178    179    189    188
  
CELL_DATA 162
SCALARS Gamma double
LOOKUP_TABLE default
  0.60168888E+002
  0.10854302E+003
  0.84897822E+002
  0.94386827E+002
  0.10400519E+003
  0.10560066E+003
  0.99898026E+002
  0.11298045E+003
  0.32854911E+002
  0.60168888E+002
  0.10854302E+003
  0.84897822E+002
  0.94386827E+002
  0.10400519E+003
  0.10560066E+003
  0.99898026E+002
  0.11298045E+003
  0.32854911E+002
  0.58804484E+002
  0.10679948E+003
  0.82254837E+002
  0.92570860E+002
  0.10345399E+003
  0.10455118E+003
  0.97897462E+002
  0.11123491E+003
  0.32379709E+002
  0.57414600E+002
  0.10501053E+003
  0.79670528E+002
  0.90825219E+002
  0.10293404E+003
  0.10344840E+003
  0.95868519E+002
  0.10951464E+003
  0.31832455E+002
  0.55995925E+002
  0.10318339E+003
  0.77152219E+002
  0.89152246E+002
  0.10240634E+003
  0.10226954E+003
  0.93821348E+002
  0.10775768E+003
  0.31223643E+002
  0.54575238E+002
  0.10136402E+003
  0.74760834E+002
  0.87522418E+002
  0.10176708E+003
  0.10100265E+003
  0.91829215E+002
  0.10604890E+003
  0.30616215E+002
  0.53124638E+002
  0.99545566E+002
  0.72503410E+002
  0.85940782E+002
  0.10101857E+003
  0.99434899E+002
  0.89869162E+002
  0.10439297E+003
  0.30010144E+002
  0.51647466E+002
  0.97738212E+002
  0.70404471E+002
  0.84394105E+002
  0.10013231E+003
  0.97654972E+002
  0.87943123E+002
  0.10280359E+003
  0.29406983E+002
  0.50133611E+002
  0.95802285E+002
  0.68396894E+002
  0.82775051E+002
  0.98966935E+002
  0.95623256E+002
  0.85937736E+002
  0.10113575E+003
  0.28760945E+002
  0.47126770E+002
  0.91081558E+002
  0.64599049E+002
  0.78726788E+002
  0.94621029E+002
  0.90646486E+002
  0.81452395E+002
  0.96570826E+002
  0.27272932E+002
  0.40307935E+002
  0.78883779E+002
  0.55757413E+002
  0.68182051E+002
  0.82010533E+002
  0.78109832E+002
  0.70331007E+002
  0.84043411E+002
  0.23558086E+002
  0.31180205E+002
  0.61861691E+002
  0.43729599E+002
  0.53402917E+002
  0.64079181E+002
  0.60762635E+002
  0.54966018E+002
  0.66251422E+002
  0.18425397E+002
  0.21751674E+002
  0.43748467E+002
  0.31092012E+002
  0.37702419E+002
  0.44954690E+002
  0.42522550E+002
  0.38757463E+002
  0.47116865E+002
  0.12995209E+002
  0.12940546E+002
  0.26383846E+002
  0.18957153E+002
  0.22682258E+002
  0.26751777E+002
  0.25299876E+002
  0.23305827E+002
  0.28582989E+002
  0.78166061E+001
  0.55517334E+001
  0.11524444E+002
  0.84253451E+001
  0.98669053E+001
  0.11443381E+002
  0.10857547E+002
  0.10153410E+002
  0.12534465E+002
  0.33987728E+001
  0.10796506E+001
  0.22864924E+001
  0.17123151E+001
  0.19508177E+001
  0.22107269E+001
  0.21117534E+001
  0.20087758E+001
  0.24850141E+001
  0.67029763E+000
  0.12168383E-001
  0.26361473E-001
  0.20268502E-001
  0.22122473E-001
  0.24323726E-001
  0.23479501E-001
  0.22930704E-001
  0.28397287E-001
  0.76470951E-002
  0.00000000E+000
  0.00000000E+000
  0.00000000E+000
  0.00000000E+000
  0.00000000E+000
  0.00000000E+000
  0.00000000E+000
  0.00000000E+000
  0.00000000E+000
POINT_DATA 190
VECTORS Uconv double
  0.00000000E+000  0.00000000E+000  0.00000000E+000
  0.00000000E+000  0.00000000E+000  0.00000000E+000
  0.00000000E+000  0.00000000E+000  0.00000000E+000
  0.00000000E+000  0.00000000E+000  0.00000000E+000
  0.00000000E+000  0.00000000E+000  0.00000000E+000
  0.00000000E+000  0.00000000E+000  0.00000000E+000
  0.00000000E+000  0.00000000E+000  0.00000000E+000
  0.00000000E+000  0.00000000E+000  0.00000000E+000
  0.00000000E+000  0.00000000E+000  0.00000000E+000
  0.00000000E+000  0.00000000E+000  0.00000000E+000
  0.00000000E+000  0.00000000E+000  0.00000000E+000
  0.00000000E+000  0.00000000E+000  0.00000000E+000
  0.00000000E+000  0.00000000E+000  0.00000000E+000
  0.00000000E+000  0.00000000E+000  0.00000000E+000
  0.00000000E+000  0.00000000E+000  0.00000000E+000
  0.00000000E+000  0.00000000E+000  0.00000000E+000
  0.00000000E+000  0.00000000E+000  0.00000000E+000
  0.00000000E+000  0.00000000E+000  0.00000000E+000
  0.00000000E+000  0.00000000E+000  0.00000000E+000
  0.00000000E+000  0.00000000E+000  0.00000000E+000
  0.17282133E+002 -0.40667881E+000 -0.20631403E+000
  0.16838986E+002  0.13861335E+000 -0.22133199E+001
  0.16481257E+002  0.68155964E+000 -0.10367291E+001
  0.16320396E+002  0.90767248E+000 -0.73486554E+000
  0.15873721E+002  0.13160498E+001 -0.31068639E+000
  0.15759822E+002  0.14011784E+001  0.40795070E+000
  0.16104152E+002  0.10830956E+001  0.93099305E+000
  0.16337830E+002  0.83504230E+000  0.12156677E+001
  0.16842996E+002  0.30479997E+000  0.12497836E+000
  0.16819910E+002  0.12943791E+000 -0.40754300E+000
  0.17294347E+002 -0.44474600E+000 -0.20763897E+000
  0.16872379E+002  0.10172136E+000 -0.20999716E+001
  0.16502300E+002  0.66639302E+000 -0.10080856E+001
  0.16294639E+002  0.93566283E+000 -0.75924765E+000
  0.15764160E+002  0.14248898E+001 -0.33020244E+000
  0.15633654E+002  0.15251404E+001  0.43581345E+000
  0.16066523E+002  0.11238187E+001  0.96656260E+000
  0.16360020E+002  0.81968251E+000  0.11857263E+001
  0.16878714E+002  0.28679309E+000  0.16176094E+000
  0.16825485E+002  0.12057304E+000 -0.39264670E+000
  0.17322169E+002 -0.52870879E+000 -0.19650112E+000
  0.16802711E+002  0.12025647E+000 -0.21677806E+001
  0.16530612E+002  0.64291818E+000 -0.96807102E+000
  0.16283325E+002  0.94842864E+000 -0.76084155E+000
  0.15671271E+002  0.15198438E+001 -0.34371231E+000
  0.15530473E+002  0.16299293E+001  0.45720546E+000
  0.16046513E+002  0.11470501E+001  0.97585809E+000
  0.16389762E+002  0.79563594E+000  0.11439043E+001
  0.16889251E+002  0.26750681E+000  0.22771027E+000
  0.16832949E+002  0.10833071E+000 -0.37818210E+000
  0.17340452E+002 -0.58775102E+000 -0.21045912E+000
  0.16817813E+002  0.79789076E-001 -0.20698239E+001
  0.16566124E+002  0.61093787E+000 -0.91693687E+000
  0.16288052E+002  0.94446475E+000 -0.74843820E+000
  0.15601982E+002  0.15927423E+001 -0.36432888E+000
  0.15453693E+002  0.17106280E+001  0.47053419E+000
  0.16045651E+002  0.11504879E+001  0.96749084E+000
  0.16427784E+002  0.76182506E+000  0.10893338E+001
  0.16918254E+002  0.24569926E+000  0.18046179E+000
  0.16828561E+002  0.11787769E+000 -0.36735095E+000
  0.17239098E+002 -0.25028038E+000 -0.99259755E-002
  0.16802329E+002  0.22670066E-001 -0.21026496E+001
  0.16610439E+002  0.56852201E+000 -0.83180903E+000
  0.16310728E+002  0.91933984E+000 -0.71826351E+000
  0.15566664E+002  0.16309823E+001 -0.36293930E+000
  0.15414624E+002  0.17539402E+001  0.47098141E+000
  0.16067392E+002  0.11297518E+001  0.94238294E+000
  0.16478088E+002  0.71382858E+000  0.99965889E+000
  0.16916877E+002  0.24133671E+000  0.32227012E+000
  0.16832674E+002  0.11215059E+000 -0.35118846E+000
  0.17236774E+002 -0.24558677E+000 -0.80392324E-002
  0.16850875E+002  0.76151644E-001 -0.15349631E+001
  0.16659707E+002  0.51942558E+000 -0.75485596E+000
  0.16354425E+002  0.86987673E+000 -0.66806663E+000
  0.15576838E+002  0.16210202E+001 -0.35041617E+000
  0.15426314E+002  0.17446778E+001  0.45646399E+000
  0.16117581E+002  0.10778640E+001  0.88695601E+000
  0.16533069E+002  0.65956492E+000  0.91503324E+000
  0.16940886E+002  0.21782654E+000  0.30759370E+000
  0.16837279E+002  0.10646503E+000 -0.33428066E+000
  0.17229798E+002 -0.22922901E+000 -0.12227742E-001
  0.16860312E+002  0.38739184E-001 -0.15095046E+001
  0.16714641E+002  0.46273587E+000 -0.66806836E+000
  0.16420661E+002  0.79396315E+000 -0.59674535E+000
  0.15644668E+002  0.15488196E+001 -0.31216187E+000
  0.15501930E+002  0.16677199E+001  0.42363944E+000
  0.16197446E+002  0.99300101E+000  0.80419230E+000
  0.16595247E+002  0.59619075E+000  0.81841640E+000
  0.16954514E+002  0.20162842E+000  0.29181763E+000
  0.16841987E+002  0.10072315E+000 -0.31684084E+000
  0.17215100E+002 -0.19379129E+000 -0.22913128E-001
  0.16870807E+002  0.15700891E-001 -0.15037960E+001
  0.16774215E+002  0.39942487E+000 -0.57305804E+000
  0.16507910E+002  0.69298384E+000 -0.50643710E+000
  0.15779463E+002  0.14046663E+001 -0.27213442E+000
  0.15650743E+002  0.15133043E+001  0.37192726E+000
  0.16307528E+002  0.87577977E+000  0.69582998E+000
  0.16663800E+002  0.52449102E+000  0.70876449E+000
  0.16983173E+002  0.17897712E+000  0.18814167E+000
  0.16823545E+002  0.13947787E+000 -0.28113712E+000
  0.17273373E+002 -0.35419997E+000 -0.32632595E+000
  0.16954463E+002  0.29204617E-001 -0.91254476E+000
  0.16837168E+002  0.33080164E+000 -0.47190742E+000
  0.16616320E+002  0.56685177E+000 -0.39779487E+000
  0.15738351E+002  0.14254260E+001 -0.21257396E+000
  0.15617024E+002  0.15224575E+001  0.30694460E+000
  0.16444105E+002  0.72675795E+000  0.55575388E+000
  0.16484040E+002  0.69128677E+000  0.10151691E+001
  0.16981307E+002  0.17902365E+000  0.29135300E+000
  0.16840182E+002  0.11034906E+000 -0.26602051E+000
  0.17272296E+002 -0.38200598E+000 -0.21050257E+000
  0.16999069E+002 -0.16005765E-001 -0.89309604E+000
  0.16901827E+002  0.25852045E+000 -0.36718800E+000
  0.16740104E+002  0.42145060E+000 -0.26946514E+000
  0.16047360E+002  0.10984793E+001 -0.14336572E+000
  0.15952610E+002  0.11759105E+001  0.22529728E+000
  0.16597275E+002  0.55751171E+000  0.40848713E+000
  0.16581440E+002  0.58936911E+000  0.87170901E+000
  0.17007874E+002  0.15526442E+000  0.12716272E+000
  0.16849989E+002  0.93204103E-001 -0.25237415E+000
  0.17320418E+002 -0.52804997E+000 -0.33734840E+000
  0.17071594E+002 -0.69927039E-001 -0.50841698E+000
  0.16748303E+002  0.39362480E+000 -0.64124689E+000
  0.16869173E+002  0.26767121E+000 -0.14283221E+000
  0.16379730E+002  0.74097951E+000 -0.75641397E-001
  0.16311835E+002  0.79789485E+000  0.13858496E+000
  0.16758440E+002  0.37631786E+000  0.25241974E+000
  0.16681398E+002  0.47779459E+000  0.70375796E+000
  0.17029008E+002  0.12973842E+000  0.12119779E+000
  0.16886432E+002  0.26310022E-001 -0.24050394E+000
  0.17293175E+002 -0.44526004E+000 -0.32778336E+000
  0.17075562E+002 -0.68294806E-001 -0.36823651E+000
  0.16834968E+002  0.29548879E+000 -0.49440024E+000
  0.16995518E+002  0.11311605E+000 -0.17002626E-001
  0.16705672E+002  0.38099487E+000 -0.86028312E-002
  0.16661201E+002  0.41891292E+000  0.54227269E-001
  0.16915649E+002  0.19413340E+000  0.97368757E-001
  0.16776172E+002  0.37160814E+000  0.54683092E+000
  0.17047845E+002  0.11931291E+000  0.19748812E+000
  0.16886182E+002  0.28005603E-001 -0.22474384E+000
  0.17275196E+002 -0.39802958E+000 -0.24427168E+000
  0.17148804E+002 -0.13147983E+000 -0.87938876E-001
  0.16914882E+002  0.20216603E+000 -0.35649529E+000
  0.17110903E+002 -0.32970870E-001  0.10047475E+000
  0.16995952E+002  0.45647804E-001  0.51273217E-001
  0.16970871E+002  0.68655731E-001 -0.21713024E-001
  0.17059674E+002  0.20771211E-001 -0.52417485E-001
  0.16864782E+002  0.26940127E+000  0.39775853E+000
  0.17095104E+002  0.61215107E-001  0.52393538E-001
  0.16910141E+002 -0.15659892E-001 -0.21905082E+000
  0.17233055E+002 -0.29640189E+000 -0.34664456E+000
  0.16938651E+002  0.83690544E-001 -0.36007607E+000
  0.16986753E+002  0.11298949E+000 -0.22835079E+000
  0.17208863E+002 -0.16301247E+000  0.20355798E+000
  0.17228645E+002 -0.24108576E+000  0.10127879E+000
  0.17217762E+002 -0.23143163E+000 -0.84016960E-001
  0.17180332E+002 -0.13262459E+000 -0.17900847E+000
  0.16944201E+002  0.17194501E+000  0.25945297E+000
  0.16926138E+002  0.20882759E+000  0.29942491E+000
  0.17037664E+002 -0.10142291E+000 -0.35287639E-001
  0.17213430E+002 -0.23419691E+000 -0.23959668E+000
  0.16980416E+002  0.64853179E-001 -0.30258826E+000
  0.17051045E+002  0.31395583E-001 -0.13665381E+000
  0.17286684E+002 -0.27307721E+000  0.29899851E+000
  0.17396176E+002 -0.46510335E+000  0.13882670E+000
  0.17395586E+002 -0.46716524E+000 -0.13104734E+000
  0.17275146E+002 -0.26204462E+000 -0.28789248E+000
  0.17013699E+002  0.84651855E-001  0.15265200E+000
  0.16926245E+002  0.20790655E+000  0.21176439E+000
  0.17031126E+002 -0.93293889E-001 -0.19888402E-001
  0.17182193E+002 -0.15338652E+000 -0.16591633E+000
  0.16996908E+002  0.48344317E-001  0.41937433E+000
  0.17106399E+002 -0.43333415E-001 -0.35265402E-001
  0.17342041E+002 -0.35804679E+000  0.36239783E+000
  0.17500785E+002 -0.62084688E+000  0.16896323E+000
  0.17506955E+002 -0.63165389E+000 -0.16453708E+000
  0.17343741E+002 -0.36439246E+000 -0.36898331E+000
  0.17075458E+002  0.37278365E-002  0.38429589E-001
  0.16942192E+002  0.19056377E+000  0.14615726E+000
  0.17019942E+002 -0.74970982E-001 -0.38500298E-002
  0.17193305E+002 -0.18418607E+000 -0.10994316E+000
  0.17007795E+002  0.33937878E-001  0.40157748E+000
  0.17153704E+002 -0.10734797E+000  0.60103804E-001
  0.17378239E+002 -0.41958041E+000  0.40661487E+000
  0.17555673E+002 -0.71376637E+000  0.18197199E+000
  0.17566506E+002 -0.72992193E+000 -0.18286254E+000
  0.17389851E+002 -0.44096328E+000 -0.42750708E+000
  0.17127939E+002 -0.67522838E-001 -0.60989275E-001
  0.16940740E+002  0.17765526E+000  0.75724085E-001
  0.17010835E+002 -0.60210606E-001  0.13430155E-001
