# vtk DataFile Version 2.0
BldPointCP.BldC
ASCII
 
DATASET POLYDATA
POINTS 9 double
  0.76797591E+001 -0.85853739E+001  0.10629758E+003
  0.18633131E+002 -0.21138422E+002  0.94529566E+002
  0.27433688E+002 -0.31170948E+002  0.82374449E+002
  0.33360036E+002 -0.37878021E+002  0.70115111E+002
  0.35242997E+002 -0.39974505E+002  0.58092509E+002
  0.33337434E+002 -0.37786832E+002  0.46084313E+002
  0.27406157E+002 -0.31070735E+002  0.33816343E+002
  0.18596931E+002 -0.21097159E+002  0.21606393E+002
  0.75775975E+001 -0.85990713E+001  0.98412552E+001
  
POINT_DATA 9
SCALARS Gamma_LL double
LOOKUP_TABLE default
  0.51647466E+002
  0.97738212E+002
  0.70404471E+002
  0.84394105E+002
  0.10013231E+003
  0.97654972E+002
  0.87943123E+002
  0.10280359E+003
  0.29406983E+002
VECTORS Vind_CP double
 -0.12014977E+000 -0.20222516E+000 -0.34027641E+000
 -0.11735776E+000  0.12121578E+000 -0.23674496E+000
 -0.15336432E+000  0.14297616E+000 -0.12983264E+000
 -0.37255683E+000  0.32643115E+000 -0.13078476E+000
 -0.56066893E+000  0.50839369E+000  0.91684197E-002
 -0.44574738E+000  0.39905510E+000  0.18681897E+000
 -0.22288205E+000  0.21385207E+000  0.20878257E+000
 -0.18959077E+000  0.18167493E+000  0.26968267E+000
 -0.73229648E-001 -0.66982306E-001  0.50729376E-001
VECTORS Vtot_CP double
 -0.38089720E+000 -0.14315373E+002  0.51848944E+000
 -0.22504428E+002 -0.32798660E+002  0.57112030E+000
 -0.40807583E+002 -0.47462626E+002 -0.56272228E+000
 -0.52575874E+002 -0.58679692E+002 -0.55305737E+000
 -0.55932316E+002 -0.63427210E+002  0.14845840E+000
 -0.52168063E+002 -0.60310863E+002  0.66590436E+000
 -0.40097246E+002 -0.49229115E+002  0.91578224E+000
 -0.21571850E+002 -0.33324426E+002  0.54545006E+000
  0.15473685E+001 -0.13795641E+002 -0.12028812E-001
VECTORS Vstr_CP double
  0.17460747E+002  0.14113148E+002 -0.85876585E+000
  0.39587070E+002  0.32919876E+002 -0.80786526E+000
  0.57854219E+002  0.47605602E+002  0.43288964E+000
  0.69403318E+002  0.59006123E+002  0.42227261E+000
  0.72571647E+002  0.63935604E+002 -0.13928998E+000
  0.68922315E+002  0.60709918E+002 -0.47908540E+000
  0.57074364E+002  0.49442967E+002 -0.70699967E+000
  0.38582260E+002  0.33506101E+002 -0.27576739E+000
  0.15579402E+002  0.13728659E+002  0.62758188E-001
VECTORS Vwnd_CP double
  0.17200000E+002 -0.00000000E+000  0.00000000E+000
  0.17200000E+002 -0.00000000E+000  0.00000000E+000
  0.17200000E+002 -0.00000000E+000  0.00000000E+000
  0.17200000E+002 -0.00000000E+000  0.00000000E+000
  0.17200000E+002 -0.00000000E+000  0.00000000E+000
  0.17200000E+002 -0.00000000E+000  0.00000000E+000
  0.17200000E+002 -0.00000000E+000  0.00000000E+000
  0.17200000E+002 -0.00000000E+000  0.00000000E+000
  0.17200000E+002 -0.00000000E+000  0.00000000E+000
VECTORS Tangent double
 -0.54662944E+000 -0.83737458E+000  0.26188047E-003
 -0.74849213E+000 -0.66313516E+000  0.33590707E-002
 -0.75600512E+000 -0.65456386E+000  0.15526861E-002
 -0.75399733E+000 -0.65687709E+000 -0.71677520E-003
 -0.74973605E+000 -0.66173693E+000 -0.31519958E-003
 -0.75134530E+000 -0.65990926E+000 -0.73968200E-004
 -0.75258596E+000 -0.65849398E+000  0.19965002E-003
 -0.74993706E+000 -0.66150915E+000  0.22173695E-003
 -0.74954662E+000 -0.66194244E+000 -0.34737035E-002
VECTORS Normal double
  0.44425838E+000 -0.28974214E+000  0.84775231E+000
  0.42578719E+000 -0.47669770E+000  0.76906734E+000
  0.46337881E+000 -0.53351270E+000  0.70756220E+000
  0.59124942E+000 -0.67914113E+000  0.43496144E+000
  0.66173107E+000 -0.74972722E+000 -0.45911570E-002
  0.59288511E+000 -0.67498515E+000 -0.43918368E+000
  0.46695524E+000 -0.53389205E+000 -0.70491991E+000
  0.42451728E+000 -0.48152209E+000 -0.76676043E+000
  0.34150129E+000 -0.38219091E+000 -0.85866581E+000
VECTORS Orth double
  0.70981036E+000 -0.46352271E+000 -0.53039226E+000
  0.50839433E+000 -0.57707110E+000 -0.63915894E+000
  0.46231627E+000 -0.53564013E+000 -0.70664936E+000
  0.28620300E+000 -0.32753597E+000 -0.90044880E+000
 -0.28018244E-002  0.36507333E-002 -0.99998941E+000
 -0.28977145E+000  0.33002244E+000 -0.89839729E+000
 -0.46429211E+000  0.53041961E+000 -0.70928688E+000
 -0.50732581E+000  0.57492793E+000 -0.64193332E+000
 -0.56705972E+000  0.64479634E+000 -0.51252410E+000
