<?xml version="1.0"?>
<VTKFile type="PolyData" version="0.1" byte_order="LittleEndian">
  <PolyData>
    <Piece NumberOfPoints="     10" NumberOfVerts="  0" NumberOfLines="      9"
           NumberOfStrips="  0" NumberOfPolys="      0">
      <Points>
        <DataArray type="Float32" NumberOfComponents="3" format="ascii">
                       0.06806                      -0.07970                     101.06332
                       1.41550                      -1.99187                     101.06196
                       2.76283                      -3.90412                     101.06027
                       4.11011                      -5.81641                     101.05810
                       5.45731                      -7.72875                     101.05541
                       6.80193                      -9.64321                     101.05210
                       8.14910                     -11.55555                     101.04829
                       9.49615                     -13.46797                     101.04458
                      10.84277                     -15.38067                     101.04151
                      12.18924                     -17.29347                     101.03982
        </DataArray>
      </Points>
      <PointData>
        <DataArray type="Float32" Name="TranslationalVelocity" NumberOfComponents="3" format="ascii">
                       0.61606                       0.19083                       0.00554
                       4.07157                       2.62120                      -0.09805
                       7.52426                       5.04909                      -0.20835
                      10.97427                       7.47500                      -0.32498
                      14.42187                       9.89906                      -0.44604
                      17.87298                      12.31364                      -0.56798
                      21.31598                      14.73471                      -0.68315
                      24.75703                      17.15419                      -0.78360
                      28.19646                      19.57154                      -0.85855
                      31.63385                      21.98716                      -0.89485
        </DataArray>
        <DataArray type="Float32" Name="RotationalVelocity" NumberOfComponents="3" format="ascii">
                       0.03697                       0.02214                       1.80708
                       0.03588                       0.02781                       1.80559
                       0.03485                       0.03382                       1.80417
                       0.03359                       0.03967                       1.80287
                       0.03164                       0.04504                       1.80168
                       0.02349                       0.05294                       1.79952
                       0.01617                       0.05470                       1.79850
                       0.00593                       0.05449                       1.79747
                      -0.00810                       0.05156                       1.79641
                      -0.02612                       0.04595                       1.79527
        </DataArray>
        <DataArray type="Float32" Name="TranslationalAcceleration" NumberOfComponents="3" format="ascii">
                      10.60974                      -0.27468                       0.02385
                      10.36936                       0.63789                      -2.93636
                      10.43772                       1.35671                      -5.99770
                      10.59027                       2.13546                      -8.79146
                      10.80557                       2.96046                     -11.10940
                      15.72002                      -1.49251                     -13.63675
                      16.00125                      -0.59759                     -13.95341
                      16.27400                       0.29756                     -13.87749
                      16.51013                       1.19392                     -13.54680
                      16.70999                       2.08247                     -13.04332
        </DataArray>
        <DataArray type="Float32" Name="OrientationX" NumberOfComponents="3" format="ascii">
                       0.00054                      -0.00038                       1.00000
                       0.00068                      -0.00051                       1.00000
                       0.00081                      -0.00065                       1.00000
                       0.00094                      -0.00079                       1.00000
                       0.00104                      -0.00091                       1.00000
                       0.00112                      -0.00096                       1.00000
                       0.00103                      -0.00081                       1.00000
                       0.00085                      -0.00053                       1.00000
                       0.00032                      -0.00023                       1.00000
                      -0.00050                       0.00220                       1.00000
        </DataArray>
        <DataArray type="Float32" Name="OrientationY" NumberOfComponents="3" format="ascii">
                      -0.81711                      -0.57648                       0.00022
                      -0.81702                      -0.57661                       0.00026
                      -0.81691                      -0.57677                       0.00029
                      -0.81681                      -0.57690                       0.00031
                      -0.81675                      -0.57699                       0.00033
                      -0.81686                      -0.57684                       0.00036
                      -0.81714                      -0.57644                       0.00037
                      -0.81759                      -0.57579                       0.00039
                      -0.81777                      -0.57554                       0.00014
                      -0.81644                      -0.57743                       0.00086
        </DataArray>
        <DataArray type="Float32" Name="OrientationZ" NumberOfComponents="3" format="ascii">
                       0.57648                      -0.81711                      -0.00062
                       0.57661                      -0.81702                      -0.00081
                       0.57676                      -0.81691                      -0.00100
                       0.57690                      -0.81681                      -0.00119
                       0.57699                      -0.81675                      -0.00134
                       0.57684                      -0.81686                      -0.00142
                       0.57644                      -0.81714                      -0.00126
                       0.57579                      -0.81759                      -0.00093
                       0.57554                      -0.81777                      -0.00037
                       0.57743                      -0.81644                       0.00209
        </DataArray>
      </PointData>
      <Lines>
        <DataArray type="Int32" Name="connectivity" format="ascii">
      0      1
      1      2
      2      3
      3      4
      4      5
      5      6
      6      7
      7      8
      8      9
        </DataArray>
        <DataArray type="Int32" Name="offsets" format="ascii">
      2
      4
      6
      8
     10
     12
     14
     16
     18
        </DataArray>
      </Lines>
    </Piece>
  </PolyData>
</VTKFile>
