<?xml version="1.0"?>
<VTKFile type="PolyData" version="0.1" byte_order="LittleEndian">
  <PolyData>
    <Piece NumberOfPoints="     10" NumberOfVerts="  0" NumberOfLines="      9"
           NumberOfStrips="  0" NumberOfPolys="      0">
      <Points>
        <DataArray type="Float32" NumberOfComponents="3" format="ascii">
                       0.25262                       0.05400                     113.18095
                      14.49803                     -14.65416                     100.78759
                      24.67314                     -25.14650                      88.70269
                      33.23968                     -33.87901                      76.55426
                      37.38799                     -38.06017                      64.22088
                      37.36084                     -37.94885                      51.95309
                      33.17882                     -33.68343                      39.66317
                      24.62895                     -25.03630                      27.43009
                      14.40505                     -14.65778                      15.26902
                       0.00017                       0.00004                       3.00019
        </DataArray>
      </Points>
      <PointData>
        <DataArray type="Float32" Name="TranslationalVelocity" NumberOfComponents="3" format="ascii">
                       3.08714                       0.74760                      -0.00926
                      28.16807                      26.41776                      -1.72243
                      47.26083                      43.20623                      -0.57283
                      63.21919                      57.75492                       0.65306
                      69.52485                      66.93894                      -0.23797
                      69.01000                      68.28159                      -0.34445
                      62.02133                      60.25288                      -0.80661
                      46.15448                      44.42715                      -0.65723
                      26.58816                      26.12204                       0.06205
                      -0.00053                      -0.00035                       0.00031
        </DataArray>
        <DataArray type="Float32" Name="RotationalVelocity" NumberOfComponents="3" format="ascii">
                      -0.00538                       0.10268                       1.81329
                      -0.06063                       0.10271                       1.82214
                      -0.15379                      -0.07519                       1.78151
                       0.09762                       0.01279                       1.70572
                       0.19402                       0.09014                       1.74128
                       0.02124                      -0.06689                       1.87508
                      -0.02818                      -0.07847                       1.88276
                       0.03208                       0.06446                       1.82717
                       0.00512                       0.02212                       1.81699
                       0.02430                       0.00611                       1.80176
        </DataArray>
        <DataArray type="Float32" Name="TranslationalAcceleration" NumberOfComponents="3" format="ascii">
                      12.19859                      -7.58821                      -0.38713
                      14.30171                      -3.00016                      -5.47492
                       8.92736                       7.08491                     -15.03897
                      11.61420                      -1.13840                     -12.02707
                      12.91376                     -10.57545                      -6.36040
                       7.30578                      -5.37287                      -5.34860
                       5.04056                       1.37017                      -1.07973
                       0.53681                       5.48271                       0.28972
                       2.21632                      -0.32948                      -0.94263
                       0.00454                       0.00252                      -0.04917
        </DataArray>
        <DataArray type="Float32" Name="OrientationX" NumberOfComponents="3" format="ascii">
                       0.96423                      -0.26496                      -0.00756
                       0.71123                      -0.70290                       0.00898
                       0.69428                      -0.71970                       0.00028
                       0.68975                      -0.72404                      -0.00239
                       0.69893                      -0.71517                       0.00594
                       0.70157                      -0.71260                       0.00062
                       0.69575                      -0.71825                      -0.00666
                       0.69859                      -0.71552                      -0.00169
                       0.70314                      -0.71105                       0.00001
                       0.70011                      -0.71402                       0.00476
        </DataArray>
        <DataArray type="Float32" Name="OrientationY" NumberOfComponents="3" format="ascii">
                      -0.26500                      -0.96424                      -0.00481
                      -0.70295                      -0.71122                       0.00451
                      -0.71969                      -0.69427                       0.00549
                      -0.72405                      -0.68975                      -0.00057
                      -0.71517                      -0.69895                      -0.00114
                      -0.71260                      -0.70157                       0.00058
                      -0.71826                      -0.69577                       0.00021
                      -0.71552                      -0.69859                       0.00075
                      -0.71105                      -0.70314                       0.00004
                      -0.71396                      -0.70012                      -0.00978
        </DataArray>
        <DataArray type="Float32" Name="OrientationZ" NumberOfComponents="3" format="ascii">
                      -0.00601                       0.00664                      -0.99996
                       0.00321                      -0.00952                      -0.99995
                      -0.00376                      -0.00402                      -0.99998
                      -0.00124                       0.00213                      -1.00000
                       0.00497                      -0.00346                      -0.99998
                       0.00003                      -0.00085                      -1.00000
                      -0.00478                       0.00463                      -0.99998
                      -0.00172                       0.00068                      -1.00000
                      -0.00002                      -0.00004                      -1.00000
                       0.01031                       0.00345                      -0.99994
        </DataArray>
      </PointData>
      <Lines>
        <DataArray type="Int32" Name="connectivity" format="ascii">
      0      1
      1      2
      2      3
      3      4
      4      5
      5      6
      6      7
      7      8
      8      9
        </DataArray>
        <DataArray type="Int32" Name="offsets" format="ascii">
      2
      4
      6
      8
     10
     12
     14
     16
     18
        </DataArray>
      </Lines>
    </Piece>
  </PolyData>
</VTKFile>
