# vtk DataFile Version 2.0
Sgmt
ASCII
 
DATASET POLYDATA
POINTS 720 double
  0.51777422E-001  0.93094828E-002  0.11318169E+003
 -0.20414745E+002 -0.22224328E+001  0.10099928E+003
 -0.34831330E+002 -0.38040383E+001  0.88764379E+002
 -0.46860287E+002 -0.51362166E+001  0.76492864E+002
 -0.52883353E+002 -0.58071705E+001  0.64246796E+002
 -0.52886088E+002 -0.58107167E+001  0.52005012E+002
 -0.46862756E+002 -0.51473768E+001  0.39760378E+002
 -0.34835497E+002 -0.38080797E+001  0.27481910E+002
 -0.20430813E+002 -0.22265984E+001  0.15240756E+002
  0.17734051E-003  0.42576087E-004  0.30001281E+001
 -0.44216276E+001 -0.47904540E+000  0.11316917E+003
 -0.20901975E+002  0.21628333E+001  0.10100088E+003
 -0.35181096E+002 -0.72698777E+000  0.88769040E+002
 -0.47130336E+002 -0.26956425E+001  0.76493686E+002
 -0.53125974E+002 -0.35644799E+001  0.64246535E+002
 -0.53132348E+002 -0.35243045E+001  0.52004105E+002
 -0.47136782E+002 -0.25615672E+001  0.39756447E+002
 -0.35199158E+002 -0.40181880E+000  0.27482132E+002
 -0.20912854E+002  0.22475089E+001  0.15241121E+002
 -0.48587168E+000  0.44737163E+001  0.30005392E+001
 -0.42742726E+001 -0.40135017E+000  0.11317175E+003
 -0.20692307E+002  0.25416301E+001  0.10098568E+003
 -0.35018557E+002 -0.84455202E-001  0.88748728E+002
 -0.47017432E+002 -0.18300295E+001  0.76483366E+002
 -0.53033968E+002 -0.25856553E+001  0.64236264E+002
 -0.53038687E+002 -0.25440918E+001  0.51991403E+002
 -0.47021575E+002 -0.16933049E+001  0.39744114E+002
 -0.35033334E+002  0.24115736E+000  0.27480044E+002
 -0.20699312E+002  0.26271426E+001  0.15240251E+002
 -0.23427248E+000  0.44811776E+001  0.30015264E+001
 -0.41225698E+001 -0.32260830E+000  0.11317459E+003
 -0.20473722E+002  0.29188538E+001  0.10097067E+003
 -0.34842195E+002  0.55610425E+000  0.88730716E+002
 -0.46882387E+002 -0.96685795E+000  0.76473378E+002
 -0.52914513E+002 -0.16100302E+001  0.64227179E+002
 -0.52917763E+002 -0.15673514E+001  0.51982067E+002
 -0.46884767E+002 -0.82771489E+000  0.39735903E+002
 -0.34853446E+002  0.88233714E+000  0.27480371E+002
 -0.20477730E+002  0.30051109E+001  0.15240300E+002
  0.18325399E-001  0.44876598E+001  0.30014770E+001
 -0.39663242E+001 -0.24296652E+000  0.11317723E+003
 -0.20246670E+002  0.32945198E+001  0.10095766E+003
 -0.34652648E+002  0.11945328E+001  0.88715965E+002
 -0.46726508E+002 -0.10660248E+000  0.76464583E+002
 -0.52771312E+002 -0.63793686E+000  0.64219735E+002
 -0.52773331E+002 -0.59446888E+000  0.51975899E+002
 -0.46727814E+002  0.34663469E-001  0.39731128E+002
 -0.34660641E+002  0.15214910E+001  0.27481997E+002
 -0.20248660E+002  0.33813988E+001  0.15240828E+002
  0.27117103E+000  0.44926755E+001  0.30017475E+001
 -0.38052621E+001 -0.16267407E+000  0.11317904E+003
 -0.20011332E+002  0.36685614E+001  0.10094817E+003
 -0.34450004E+002  0.18306040E+001  0.88705111E+002
 -0.46551242E+002  0.75035325E+000  0.76458048E+002
 -0.52606074E+002  0.33019316E+000  0.64214650E+002
 -0.52607244E+002  0.37404213E+000  0.51972536E+002
 -0.46552520E+002  0.89343287E+000  0.39729181E+002
 -0.34455996E+002  0.21583461E+001  0.27483933E+002
 -0.20012562E+002  0.37559475E+001  0.15241490E+002
  0.52423973E+000  0.44962878E+001  0.30018391E+001
 -0.36390647E+001 -0.81937315E-001  0.11317980E+003
 -0.19768502E+002  0.40408927E+001  0.10094293E+003
 -0.34236006E+002  0.24642254E+001  0.88699335E+002
 -0.46357524E+002  0.16036644E+001  0.76454132E+002
 -0.52420035E+002  0.12939635E+001  0.64211998E+002
 -0.52420713E+002  0.13378617E+001  0.51971593E+002
 -0.46359021E+002  0.17480400E+001  0.39729457E+002
 -0.34241539E+002  0.27927698E+001  0.27483592E+002
 -0.19769498E+002  0.41286331E+001  0.15242086E+002
  0.77733187E+000  0.44984430E+001  0.30019504E+001
 -0.34686791E+001 -0.96037037E-003  0.11317991E+003
 -0.19519655E+002  0.44116887E+001  0.10094078E+003
 -0.34012995E+002  0.30960199E+001  0.88698114E+002
 -0.46147640E+002  0.24541963E+001  0.76452470E+002
 -0.52215035E+002  0.22541472E+001  0.64211088E+002
 -0.52215107E+002  0.22980192E+001  0.51971783E+002
 -0.46147667E+002  0.25990129E+001  0.39730417E+002
 -0.34012862E+002  0.34247165E+001  0.27484816E+002
 -0.19519552E+002  0.44994936E+001  0.15242461E+002
  0.10303522E+001  0.44991457E+001  0.30020679E+001
  0.51777422E-001  0.93094828E-002  0.11318169E+003
  0.83030015E+001  0.18813156E+002  0.10089971E+003
  0.14162518E+002  0.32120364E+002  0.88716247E+002
  0.19073415E+002  0.43241277E+002  0.76486012E+002
  0.21505935E+002  0.48756221E+002  0.64217131E+002
  0.21499481E+002  0.48742148E+002  0.51965239E+002
  0.19061413E+002  0.43212949E+002  0.39705036E+002
  0.14156732E+002  0.32098791E+002  0.27462815E+002
  0.82943133E+001  0.18804226E+002  0.15257565E+002
  0.17734051E-003  0.42576087E-004  0.30001281E+001
  0.27101898E+001 -0.36215081E+001  0.11318439E+003
  0.12329998E+002  0.17010034E+002  0.10089836E+003
  0.16998285E+002  0.30875766E+002  0.88716677E+002
  0.21323373E+002  0.42257907E+002  0.76486727E+002
  0.23569623E+002  0.47845332E+002  0.64217279E+002
  0.23601943E+002  0.47810494E+002  0.51964906E+002
  0.21442966E+002  0.42169052E+002  0.39704361E+002
  0.17292167E+002  0.30718969E+002  0.27463081E+002
  0.12409135E+002  0.16982621E+002  0.15257910E+002
  0.41174998E+001 -0.18158664E+001  0.30115410E+001
  0.28005163E+001 -0.36712202E+001  0.11318261E+003
  0.12805736E+002  0.16788814E+002  0.10090799E+003
  0.17718913E+002  0.30548371E+002  0.88712816E+002
  0.22245211E+002  0.41845242E+002  0.76477332E+002
  0.24599102E+002  0.47407035E+002  0.64216473E+002
  0.24633325E+002  0.47377672E+002  0.51966812E+002
  0.22367904E+002  0.41765691E+002  0.39711523E+002
  0.18011628E+002  0.30393348E+002  0.27470231E+002
  0.12885566E+002  0.16756941E+002  0.15256659E+002
  0.42557188E+001 -0.18896305E+001  0.30092948E+001
  0.28924859E+001 -0.37195128E+001  0.11318171E+003
  0.13278546E+002  0.16561758E+002  0.10091848E+003
  0.18433834E+002  0.30212629E+002  0.88709102E+002
  0.23160048E+002  0.41422739E+002  0.76469704E+002
  0.25620360E+002  0.46954781E+002  0.64216004E+002
  0.25656545E+002  0.46929804E+002  0.51967857E+002
  0.23285454E+002  0.41349832E+002  0.39717013E+002
  0.18725479E+002  0.30058766E+002  0.27475648E+002
  0.13358305E+002  0.16526296E+002  0.15253910E+002
  0.43928152E+001 -0.19628725E+001  0.30068413E+001
  0.29862348E+001 -0.37663516E+001  0.11318142E+003
  0.13747965E+002  0.16328626E+002  0.10092821E+003
  0.19142825E+002  0.29869082E+002  0.88705445E+002
  0.24067592E+002  0.40989866E+002  0.76463629E+002
  0.26632433E+002  0.46486806E+002  0.64215290E+002
  0.26670260E+002  0.46464915E+002  0.51968625E+002
  0.24194874E+002  0.40920788E+002  0.39721229E+002
  0.19433428E+002  0.29715307E+002  0.27479556E+002
  0.13827015E+002  0.16290305E+002  0.15250233E+002
  0.45286928E+001 -0.20355822E+001  0.30044893E+001
  0.30820662E+001 -0.38116377E+001  0.11318138E+003
  0.14213221E+002  0.16089070E+002  0.10093557E+003
  0.19845728E+002  0.29518441E+002  0.88701829E+002
  0.24967916E+002  0.40546543E+002  0.76459225E+002
  0.27634462E+002  0.46001833E+002  0.64214323E+002
  0.27673021E+002  0.45981091E+002  0.51969257E+002
  0.25095634E+002  0.40478174E+002  0.39724390E+002
  0.20134748E+002  0.29362274E+002  0.27483220E+002
  0.14290863E+002  0.16047848E+002  0.15247073E+002
  0.46632524E+001 -0.21076998E+001  0.30025555E+001
  0.31807440E+001 -0.38550393E+001  0.11318138E+003
  0.14673255E+002  0.15842644E+002  0.10093886E+003
  0.20543356E+002  0.29162451E+002  0.88699337E+002
  0.25861903E+002  0.40094308E+002  0.76456736E+002
  0.28627223E+002  0.45502126E+002  0.64213388E+002
  0.28665663E+002  0.45481041E+002  0.51969686E+002
  0.25988725E+002  0.40024338E+002  0.39726253E+002
  0.20830408E+002  0.29002378E+002  0.27484777E+002
  0.14750000E+002  0.15800106E+002  0.15244141E+002
  0.47965325E+001 -0.21791027E+001  0.30014147E+001
  0.32818278E+001 -0.38964428E+001  0.11318139E+003
  0.15128577E+002  0.15591391E+002  0.10094031E+003
  0.21236255E+002  0.28801061E+002  0.88698061E+002
  0.26750604E+002  0.39634993E+002  0.76456177E+002
  0.29612926E+002  0.44992162E+002  0.64213086E+002
  0.29650949E+002  0.44970311E+002  0.51969785E+002
  0.26876076E+002  0.39562706E+002  0.39726644E+002
  0.21520902E+002  0.28636590E+002  0.27484919E+002
  0.15204386E+002  0.15547305E+002  0.15242978E+002
  0.49286176E+001 -0.22496845E+001  0.30010831E+001
  0.51777422E-001  0.93094828E-002  0.11318169E+003
  0.12148963E+002 -0.16588069E+002  0.10090605E+003
  0.20719888E+002 -0.28326485E+002  0.88713020E+002
  0.27906999E+002 -0.38134137E+002  0.76484659E+002
  0.31476645E+002 -0.43000200E+002  0.64220308E+002
  0.31472791E+002 -0.42988085E+002  0.51968366E+002
  0.27898589E+002 -0.38105891E+002  0.39713020E+002
  0.20716405E+002 -0.28300652E+002  0.27474259E+002
  0.12138531E+002 -0.16583947E+002  0.15258292E+002
  0.17734051E-003  0.42576087E-004  0.30001281E+001
 -0.17626134E+001 -0.41086975E+001  0.11317962E+003
  0.85958241E+001 -0.19204007E+002  0.10091140E+003
  0.18216187E+002 -0.30149142E+002  0.88715583E+002
  0.25921745E+002 -0.39579162E+002  0.76484095E+002
  0.29657710E+002 -0.44334366E+002  0.64220218E+002
  0.29619671E+002 -0.44349802E+002  0.51967636E+002
  0.25797638E+002 -0.39638052E+002  0.39712095E+002
  0.17950476E+002 -0.30321666E+002  0.27474645E+002
  0.85110233E+001 -0.19246876E+002  0.15258334E+002
 -0.36310961E+001 -0.26577221E+001  0.29883041E+001
 -0.16822213E+001 -0.40781735E+001  0.11317943E+003
  0.84109109E+001 -0.19352578E+002  0.10091331E+003
  0.17837024E+002 -0.30462697E+002  0.88711104E+002
  0.25366207E+002 -0.40025750E+002  0.76475271E+002
  0.29018666E+002 -0.44856520E+002  0.64218511E+002
  0.28980905E+002 -0.44875873E+002  0.51968884E+002
  0.25242641E+002 -0.40092070E+002  0.39717711E+002
  0.17567981E+002 -0.30636838E+002  0.27478868E+002
  0.83321742E+001 -0.19396056E+002  0.15257581E+002
 -0.35077022E+001 -0.25916095E+001  0.29900011E+001
[...]
CELL_DATA 1278
SCALARS Gamma double
LOOKUP_TABLE default
 -0.28342566E+001
  0.28342566E+001
 -0.79388323E+002
  0.76554066E+002
 -0.69385444E+002
 -0.10002878E+002
 -0.66057483E+002
 -0.33279609E+001
 -0.66650169E+002
  0.59268608E+000
 -0.63428619E+002
 -0.32215504E+001
 -0.65857825E+002
  0.24292057E+001
 -0.77955958E+002
  0.12098133E+002
 -0.39714610E+002
 -0.38241348E+002
 -0.39714610E+002
  0.00000000E+000
  0.28342566E+001
  0.00000000E+000
  0.76554066E+002
  0.00000000E+000
 -0.10002878E+002
  0.00000000E+000
 -0.33279609E+001
  0.00000000E+000
  0.59268608E+000
  0.00000000E+000
 -0.32215504E+001
  0.00000000E+000
  0.24292057E+001
  0.00000000E+000
  0.12098133E+002
  0.00000000E+000
 -0.38241348E+002
 -0.39714610E+002
  0.10427003E+001
  0.17915563E+001
  0.30769127E+002
  0.46827639E+002
  0.26983230E+002
 -0.62169816E+001
  0.24776825E+002
 -0.11215561E+001
  0.24504431E+002
  0.86508056E+000
  0.23208485E+002
 -0.19256050E+001
  0.24544431E+002
  0.10932602E+001
  0.29638113E+002
  0.70044515E+001
  0.14999923E+002
 -0.23603158E+002
 -0.24714688E+002
  0.97299534E+000
  0.81856091E+000
  0.27077488E+002
  0.20723147E+002
  0.23657597E+002
 -0.27970910E+001
  0.22649332E+002
 -0.11329133E+000
  0.22929610E+002
  0.58480337E+000
  0.21802107E+002
 -0.79810264E+000
  0.22590109E+002
  0.30525857E+000
  0.26662817E+002
  0.29317436E+001
  0.13579584E+002
 -0.10519925E+002
 -0.11135103E+002
  0.64872544E+000
  0.16983547E+000
  0.17225887E+002
  0.41459856E+001
  0.14985761E+002
 -0.55696483E+000
  0.14823631E+002
  0.48838483E-001
  0.15253043E+002
  0.15539132E+000
  0.14596251E+002
 -0.14131106E+000
  0.14877618E+002
  0.23892066E-001
  0.17257262E+002
  0.55209979E+000
  0.88586096E+001
 -0.21212729E+001
 -0.22764939E+001
  0.16779964E+000
  0.20358333E-002
  0.42656912E+001
  0.48093971E-001
  0.37150864E+001
 -0.63599538E-002
  0.37625785E+001
  0.13463489E-002
  0.39157448E+001
  0.22250323E-002
  0.37758405E+001
 -0.14067937E-002
  0.37998844E+001
 -0.15175484E-003
  0.43459621E+001
  0.60219938E-002
  0.22494345E+001
 -0.24745317E-001
 -0.27059359E-001
  0.20358333E-002
  0.00000000E+000
  0.00000000E+000
  0.50129804E-001
 -0.00000000E+000
  0.00000000E+000
  0.43769850E-001
 -0.00000000E+000
  0.00000000E+000
  0.45116199E-001
 -0.00000000E+000
  0.00000000E+000
  0.47341231E-001
 -0.00000000E+000
  0.00000000E+000
  0.45934438E-001
 -0.00000000E+000
  0.00000000E+000
  0.45782683E-001
 -0.00000000E+000
  0.00000000E+000
  0.51804677E-001
 -0.00000000E+000
  0.00000000E+000
  0.27059359E-001
 -0.00000000E+000
  0.00000000E+000
 -0.00000000E+000
  0.57999852E+002
 -0.57999852E+002
  0.30493256E+002
  0.27506596E+002
  0.16374694E+002
  0.14118562E+002
  0.23384678E+002
 -0.70099840E+001
  0.31974723E+002
 -0.85900453E+001
  0.28167340E+002
  0.38073832E+001
  0.22576558E+002
  0.55907816E+001
  0.31041105E+002
 -0.84645468E+001
  0.33225043E+002
 -0.21839384E+001
  0.33225043E+002
  0.00000000E+000
 -0.57999852E+002
  0.00000000E+000
  0.27506596E+002
  0.00000000E+000
  0.14118562E+002
  0.00000000E+000
 -0.70099840E+001
  0.00000000E+000
 -0.85900453E+001
  0.00000000E+000
  0.38073832E+001
  0.00000000E+000
  0.55907816E+001
  0.00000000E+000
 -0.84645468E+001
  0.00000000E+000
 -0.21839384E+001
  0.33225043E+002
 -0.22238158E+002
 -0.35761694E+002
 -0.11071798E+002
  0.16340236E+002
 -0.50772428E+001
  0.81240071E+001
 -0.80530541E+001
 -0.40341727E+001
 -0.12045193E+002
 -0.45979064E+001
 -0.10367287E+002
  0.21294770E+001
 -0.77188607E+001
  0.29423555E+001
 -0.10764720E+002
 -0.54186876E+001
 -0.11897044E+002
 -0.10516144E+001
  0.21328000E+002
 -0.19801747E+002
 -0.15959946E+002
 -0.10431548E+002
  0.69700364E+001
 -0.56400549E+001
  0.33325139E+001
 -0.81041948E+001
 -0.15700328E+001
 -0.11011162E+002
 -0.16909396E+001
 -0.96864267E+001
  0.80474206E+000
 -0.77734533E+001
  0.10293821E+001
 -0.10713530E+002
 -0.24786105E+001
 -0.11444404E+002
 -0.32074043E+000
  0.98835952E+001
 -0.12734296E+002
 -0.32256505E+001
 -0.70919756E+001
  0.13277161E+001
 -0.43707978E+001
  0.61133605E+000
 -0.56838027E+001
 -0.25702784E+000
 -0.71110926E+001
 -0.26364967E+000
 -0.64318326E+001
  0.12548201E+000
 -0.55503317E+001
  0.14788120E+000
 -0.75239556E+001
 -0.50498659E+000
 -0.78048641E+001
 -0.39831881E-001
  0.20787311E+001
 -0.31878192E+001
 -0.37831218E-001
 -0.18745597E+001
  0.14456477E-001
 -0.12697514E+001
  0.65277625E-002
 -0.15248765E+001
 -0.19027177E-002
 -0.17864326E+001
 -0.20935815E-002
 -0.16619089E+001
  0.95830135E-003
 -0.15148379E+001
  0.81028700E-003
 -0.20138719E+001
 -0.59526030E-002
 -0.20534908E+001
 -0.21301071E-003
  0.25240302E-001
 -0.37831218E-001
 -0.00000000E+000
 -0.00000000E+000
 -0.23374740E-001
 -0.00000000E+000
 -0.00000000E+000
 -0.16846978E-001
 -0.00000000E+000
 -0.00000000E+000
 -0.18749696E-001
 -0.00000000E+000
 -0.00000000E+000
 -0.20843277E-001
 -0.00000000E+000
 -0.00000000E+000
 -0.19884976E-001
 -0.00000000E+000
 -0.00000000E+000
 -0.19074689E-001
 -0.00000000E+000
 -0.00000000E+000
 -0.25027292E-001
 -0.00000000E+000
 -0.00000000E+000
 -0.25240302E-001
 -0.00000000E+000
 -0.00000000E+000
  0.00000000E+000
  0.21751674E+002
 -0.21751674E+002
  0.43748467E+002
 -0.21996792E+002
  0.31092012E+002
  0.12656455E+002
  0.37702419E+002
 -0.66104064E+001
  0.44954690E+002
 -0.72522709E+001
  0.42522550E+002
  0.24321392E+001
  0.38757463E+002
  0.37650876E+001
  0.47116865E+002
 -0.83594026E+001
  0.12995209E+002
  0.34121657E+002
  0.12995209E+002
  0.00000000E+000
 -0.21751674E+002
  0.00000000E+000
 -0.21996792E+002
  0.00000000E+000
  0.12656455E+002
  0.00000000E+000
 -0.66104064E+001
  0.00000000E+000
 -0.72522709E+001
  0.00000000E+000
  0.24321392E+001
  0.00000000E+000
  0.37650876E+001
  0.00000000E+000
 -0.83594026E+001
  0.00000000E+000
  0.34121657E+002
  0.12995209E+002
 -0.88111280E+001
 -0.12940546E+002
 -0.17364621E+002
 -0.13443300E+002
 -0.12134860E+002
  0.74266936E+001
 -0.15020160E+002
 -0.37251056E+001
 -0.18202912E+002
 -0.40695191E+001
 -0.17222675E+002
  0.14519017E+001
 -0.15451635E+002
  0.19940483E+001
 -0.18533877E+002
 -0.52771613E+001
 -0.51786026E+001
  0.20766383E+002
  0.78166061E+001
 -0.73888130E+001
 -0.55517334E+001
 -0.14859403E+002
 -0.59727103E+001
 -0.10531808E+002
  0.30990986E+001
 -0.12815353E+002
 -0.14415602E+001
 -0.15308397E+002
 -0.15764755E+001
 -0.14442329E+002
  0.58583389E+000
 -0.13152417E+002
  0.70413672E+000
 -0.16048524E+002
 -0.23810543E+001
 -0.44178333E+001
  0.91356917E+001
  0.33987728E+001
 -0.44720828E+001
 -0.10796506E+001
 -0.92379513E+001
 -0.12068418E+001
 -0.67130300E+001
  0.57417728E+000
 -0.79160876E+001
 -0.23850265E+000
 -0.92326540E+001
 -0.25990912E+000
 -0.87457936E+001
  0.98973503E-001
 -0.81446344E+001
  0.10297754E+000
 -0.10049450E+002
 -0.47623825E+000
 -0.27284752E+001
  0.18147164E+001
  0.67029763E+000
 -0.10674822E+001
 -0.12168383E-001
 -0.22601309E+001
 -0.14193089E-001
 -0.16920466E+001
  0.60929708E-002
 -0.19286953E+001
 -0.18539712E-002
 -0.21864031E+001
 -0.22012529E-002
 -0.20882739E+001
  0.84422521E-003
 -0.19858451E+001
  0.54879671E-003
 -0.24566168E+001
 -0.54665826E-002
 -0.66265053E+000
  0.20750192E-001
  0.76470951E-002
 -0.12168383E-001
 -0.00000000E+000
 -0.00000000E+000
 -0.26361473E-001
 -0.00000000E+000
 -0.00000000E+000
 -0.20268502E-001
 -0.00000000E+000
 -0.00000000E+000
 -0.22122473E-001
 -0.00000000E+000
 -0.00000000E+000
 -0.24323726E-001
 -0.00000000E+000
 -0.00000000E+000
 -0.23479501E-001
 -0.00000000E+000
 -0.00000000E+000
 -0.22930704E-001
 -0.00000000E+000
 -0.00000000E+000
 -0.28397287E-001
 -0.00000000E+000
 -0.00000000E+000
 -0.76470951E-002
 -0.00000000E+000
 -0.00000000E+000
  0.00000000E+000
 -0.69589104E+000
  0.69589104E+000
  0.14816608E+001
 -0.21775518E+001
  0.19857416E+000
  0.12830866E+001
  0.16625349E+000
  0.32320669E-001
 -0.23110728E+000
  0.39736077E+000
 -0.42943048E+000
  0.19832320E+000
 -0.60932890E+000
  0.17989843E+000
 -0.75940070E+000
  0.15007179E+000
 -0.12313482E+001
  0.47194751E+000
 -0.12313482E+001
  0.00000000E+000
  0.69589104E+000
  0.00000000E+000
 -0.21775518E+001
  0.00000000E+000
  0.12830866E+001
  0.00000000E+000
  0.32320669E-001
  0.00000000E+000
  0.39736077E+000
  0.00000000E+000
  0.19832320E+000
  0.00000000E+000
  0.17989843E+000
  0.00000000E+000
  0.15007179E+000
  0.00000000E+000
  0.47194751E+000
 -0.12313482E+001
  0.49003459E+000
  0.20585645E+000
 -0.72094390E+000
 -0.96657333E+000
 -0.10196453E+000
  0.66410724E+000
 -0.12279575E+000
  0.53151884E-001
  0.63897965E-001
  0.21066706E+000
  0.15246794E+000
  0.10975322E+000
  0.24066590E+000
  0.91700472E-001
  0.31558484E+000
  0.75152854E-001
  0.51858801E+000
  0.26894434E+000
 -0.71276020E+000
  0.22058251E+000
 -0.14726060E-001
 -0.50525433E+000
 -0.24073648E+000
 -0.71576945E-001
  0.23042985E+000
 -0.54497242E-001
  0.36072180E-001
  0.77342782E-001
  0.78827037E-001
  0.14351446E+000
  0.43581542E-001
  0.20182208E+000
  0.33392851E-001
  0.24991818E+000
  0.27056754E-001
  0.40676106E+000
  0.11210146E+000
 -0.30599914E+000
  0.11591051E-002
 -0.15885165E-001
 -0.21969885E+000
 -0.19878529E-001
 -0.24307034E-001
  0.35038042E-001
  0.29444707E-002
  0.88206752E-002
  0.68706243E-001
  0.13065265E-001
  0.10477999E+000
  0.75077901E-002
  0.13285900E+000
  0.53138460E-002
  0.15551724E+000
  0.43985183E-002
  0.24588546E+000
  0.21733232E-001
 -0.60113674E-001
 -0.15695824E-001
 -0.18934076E-003
 -0.35522716E-001
 -0.51637527E-004
 -0.78145232E-003
  0.29677866E-003
  0.79265796E-002
  0.11264327E-003
  0.20867785E-001
  0.12405976E-003
  0.28305413E-001
  0.70162431E-004
  0.33575191E-001
  0.44067848E-004
  0.37937774E-001
  0.35934829E-004
  0.59422186E-001
  0.24882016E-003
 -0.69148868E-003
 -0.18934076E-003
 -0.00000000E+000
 -0.00000000E+000
 -0.24097829E-003
 -0.00000000E+000
 -0.00000000E+000
  0.55800373E-004
  0.00000000E+000
  0.00000000E+000
  0.16844364E-003
 -0.00000000E+000
  0.00000000E+000
  0.29250341E-003
 -0.00000000E+000
  0.00000000E+000
  0.36266584E-003
 -0.00000000E+000
  0.00000000E+000
  0.40673368E-003
 -0.00000000E+000
  0.00000000E+000
  0.44266851E-003
 -0.00000000E+000
  0.00000000E+000
  0.69148868E-003
 -0.00000000E+000
  0.00000000E+000
 -0.00000000E+000
 -0.47805039E+000
  0.47805039E+000
 -0.35525885E+000
 -0.12279153E+000
 -0.96468636E+000
  0.60942751E+000
 -0.13031792E+001
  0.33849289E+000
 -0.15361449E+001
  0.23296568E+000
 -0.15003890E+001
 -0.35755882E-001
 -0.13874721E+001
 -0.11291699E+000
 -0.11095419E+001
 -0.27793014E+000
 -0.79450805E+000
 -0.31503387E+000
 -0.79450805E+000
  0.00000000E+000
  0.47805039E+000
  0.00000000E+000
 -0.12279153E+000
  0.00000000E+000
  0.60942751E+000
  0.00000000E+000
  0.33849289E+000
  0.00000000E+000
  0.23296568E+000
  0.00000000E+000
 -0.35755882E-001
  0.00000000E+000
 -0.11291699E+000
  0.00000000E+000
 -0.27793014E+000
  0.00000000E+000
 -0.31503387E+000
 -0.79450805E+000
  0.20790046E+000
  0.27014992E+000
  0.10999486E+000
 -0.24885930E-001
  0.33387990E+000
  0.38554246E+000
  0.44346670E+000
  0.22890609E+000
  0.50596707E+000
  0.17046531E+000
  0.46053396E+000
  0.96772320E-002
  0.39777944E+000
 -0.50162472E-001
  0.28551796E+000
 -0.16566866E+000
  0.13741367E+000
 -0.16692958E+000
 -0.65709438E+000
  0.16639608E+000
  0.10375385E+000
  0.12917388E+000
  0.12336271E-001
  0.35113219E+000
  0.16358415E+000
  0.47595892E+000
  0.10407937E+000
  0.56563783E+000
  0.80786391E-001
  0.55998429E+000
  0.15330773E-001
  0.52217745E+000
 -0.12355634E-001
  0.42171285E+000
 -0.65204050E-001
  0.31037291E+000
 -0.55589640E-001
 -0.34672148E+000
  0.89847100E-001
  0.13906748E-001
  0.97873087E-001
  0.43102834E-002
  0.23445350E+000
  0.27003731E-001
  0.31918700E+000
  0.19345879E-001
  0.38308300E+000
  0.16890385E-001
  0.39173119E+000
  0.66825889E-002
  0.37732871E+000
  0.20468383E-002
  0.32045489E+000
 -0.83302305E-002
  0.26895667E+000
 -0.40914188E-002
 -0.77764804E-001
  0.13843415E-001
  0.63332842E-004
  0.18160081E-001
 -0.63821958E-005
  0.44992030E-001
  0.17178095E-003
  0.64198178E-001
  0.13973104E-003
  0.80934843E-001
  0.15372039E-003
  0.87520845E-001
  0.96587215E-004
  0.89482047E-001
  0.85635798E-004
  0.81146095E-001
  0.57217056E-005
  0.76990012E-001
  0.64664345E-004
 -0.77479209E-003
  0.63332842E-004
 -0.00000000E+000
 -0.00000000E+000
  0.56950646E-004
 -0.00000000E+000
 -0.00000000E+000
  0.22873159E-003
 -0.00000000E+000
 -0.00000000E+000
  0.36846263E-003
 -0.00000000E+000
 -0.00000000E+000
  0.52218302E-003
 -0.00000000E+000
 -0.00000000E+000
  0.61877024E-003
 -0.00000000E+000
 -0.00000000E+000
  0.70440604E-003
  0.00000000E+000
  0.00000000E+000
  0.71012774E-003
 -0.00000000E+000
  0.00000000E+000
  0.77479209E-003
 -0.00000000E+000
  0.00000000E+000
 -0.00000000E+000
  0.75725390E+001
 -0.75725390E+001
  0.84031690E+001
 -0.83063005E+000
  0.36015995E+001
  0.48015696E+001
 -0.13539518E+001
  0.49555512E+001
 -0.13147337E+001
 -0.39218049E-001
 -0.16747463E+001
  0.36001259E+000
 -0.16372536E+001
 -0.37492723E-001
 -0.13532443E+001
 -0.28400924E+000
 -0.83672110E+000
 -0.51652324E+000
 -0.83672110E+000
  0.00000000E+000
 -0.75725390E+001
  0.00000000E+000
 -0.83063005E+000
  0.00000000E+000
  0.48015696E+001
  0.00000000E+000
  0.49555512E+001
  0.00000000E+000
 -0.39218049E-001
  0.00000000E+000
  0.36001259E+000
  0.00000000E+000
 -0.37492723E-001
  0.00000000E+000
 -0.28400924E+000
  0.00000000E+000
 -0.51652324E+000
 -0.83672110E+000
 -0.38152319E+001
 -0.37573070E+001
 -0.32716854E+001
 -0.13741766E+001
 -0.12484452E+001
  0.27783293E+001
  0.44170768E+000
  0.32653984E+001
  0.43394763E+000
 -0.31458001E-001
  0.54083738E+000
  0.25312284E+000
  0.51112643E+000
 -0.77817690E-002
  0.39938196E+000
 -0.17226477E+000
  0.16901572E+000
 -0.28615700E+000
 -0.66770539E+000
 -0.25390623E+001
 -0.12182447E+001
 -0.29495365E+001
 -0.96370237E+000
 -0.12358414E+001
  0.10646342E+001
  0.50070350E+000
  0.15288535E+001
  0.48320289E+000
 -0.13957393E-001
  0.61753584E+000
  0.11878989E+000
  0.60389739E+000
  0.58566755E-002
  0.50211255E+000
 -0.70479926E-001
  0.32377232E+000
 -0.10781676E+000
 -0.34393307E+000
 -0.10586385E+001
 -0.15960625E+000
 -0.17904075E+001
 -0.23193333E+000
 -0.87837968E+000
  0.15260639E+000
  0.34081773E+000
  0.30965604E+000
  0.32756731E+000
 -0.70696891E-003
  0.42125617E+000
  0.25101024E-001
  0.42179459E+000
  0.53182568E-002
  0.36141177E+000
 -0.10097102E-001
  0.26858358E+000
 -0.14988574E-001
 -0.75349489E-001
 -0.15857867E+000
 -0.10275771E-002
 -0.38833566E+000
 -0.21763449E-002
 -0.23639612E+000
  0.66684911E-003
  0.70133890E-001
  0.31260352E-002
  0.69548593E-001
 -0.12167225E-003
  0.94369440E-001
  0.28017772E-003
  0.99590135E-001
  0.97561563E-004
  0.89527236E-001
 -0.34201940E-004
  0.74622044E-001
 -0.83382695E-004
 -0.72744468E-003
 -0.10275771E-002
 -0.00000000E+000
 -0.00000000E+000
 -0.32039221E-002
 -0.00000000E+000
 -0.00000000E+000
 -0.25370730E-002
 -0.00000000E+000
 -0.00000000E+000
  0.58896227E-003
  0.00000000E+000
  0.00000000E+000
  0.46729003E-003
 -0.00000000E+000
  0.00000000E+000
  0.74746775E-003
 -0.00000000E+000
  0.00000000E+000
  0.84502932E-003
 -0.00000000E+000
  0.00000000E+000
  0.81082738E-003
 -0.00000000E+000
  0.00000000E+000
  0.72744468E-003
 -0.00000000E+000
  0.00000000E+000
 -0.00000000E+000
 -0.77924075E+000
  0.77924075E+000
 -0.17416418E+001
  0.96240101E+000
 -0.28754594E+001
  0.11338177E+001
 -0.40535499E+001
  0.11780905E+001
 -0.49802366E+001
  0.92668665E+000
 -0.64974564E+001
  0.15172198E+001
 -0.76196994E+001
  0.11222430E+001
 -0.80287294E+001
  0.40903004E+000
 -0.94959761E+001
  0.14672467E+001
 -0.94959761E+001
  0.00000000E+000
  0.77924075E+000
  0.00000000E+000
  0.96240101E+000
  0.00000000E+000
  0.11338177E+001
  0.00000000E+000
  0.11780905E+001
  0.00000000E+000
  0.92668665E+000
  0.00000000E+000
  0.15172198E+001
  0.00000000E+000
  0.11222430E+001
  0.00000000E+000
  0.40903004E+000
  0.00000000E+000
  0.14672467E+001
 -0.94959761E+001
  0.12137935E+000
  0.65786140E+000
  0.84057936E+000
  0.24320100E+000
  0.12811604E+001
  0.69323664E+000
  0.18597921E+001
  0.59945874E+000
  0.22636994E+001
  0.52277937E+000
  0.30182222E+001
  0.76269704E+000
  0.35486067E+001
  0.59185849E+000
  0.37552398E+001
  0.20239694E+000
  0.44900438E+001
  0.73244268E+000
 -0.50059323E+001
  0.17084056E+000
  0.48702084E+000
  0.56623376E+000
 -0.15219220E+000
  0.96953392E+000
  0.28993648E+000
  0.13699372E+001
  0.19905543E+000
  0.16978081E+001
  0.19490846E+000
  0.22025791E+001
  0.25792610E+000
  0.25840360E+001
  0.21040160E+000
  0.27206181E+001
  0.65814830E-001
  0.32163063E+001
  0.23675448E+000
 -0.17896260E+001
  0.39524310E+000
  0.91777741E-001
  0.28427754E+000
 -0.41226645E-001
  0.52408983E+000
  0.50124186E-001
  0.69652740E+000
  0.26617857E-001
  0.86250648E+000
  0.28929383E-001
  0.10856378E+001
  0.34794740E-001
  0.12661759E+001
  0.29863566E-001
  0.13238886E+001
  0.81020706E-002
  0.15341435E+001
  0.26499582E-001
 -0.25548248E+000
  0.90766224E-001
  0.10115168E-002
  0.50283900E-001
 -0.74432121E-003
  0.99817298E-001
  0.59078817E-003
  0.12629913E+000
  0.13602636E-003
  0.15504503E+000
  0.18348249E-003
  0.18965818E+000
  0.18158900E-003
  0.21936837E+000
  0.15338020E-003
  0.22746245E+000
  0.79856616E-005
  0.25397006E+000
 -0.80285949E-005
 -0.15124189E-002
  0.10115168E-002
  0.00000000E+000
  0.00000000E+000
  0.26719562E-003
 -0.00000000E+000
  0.00000000E+000
  0.85798379E-003
 -0.00000000E+000
  0.00000000E+000
  0.99401015E-003
 -0.00000000E+000
  0.00000000E+000
  0.11774926E-002
 -0.00000000E+000
  0.00000000E+000
  0.13590817E-002
 -0.00000000E+000
  0.00000000E+000
  0.15124619E-002
 -0.00000000E+000
  0.00000000E+000
  0.15204475E-002
 -0.00000000E+000
  0.00000000E+000
  0.15124189E-002
 -0.00000000E+000
  0.00000000E+000
 -0.00000000E+000
 -0.13862485E+001
  0.13862485E+001
  0.30729643E-001
 -0.14169781E+001
  0.89947137E+000
 -0.86874173E+000
  0.18098546E+001
 -0.91038324E+000
  0.26833102E+001
 -0.87345561E+000
  0.34588030E+001
 -0.77549275E+000
  0.41199924E+001
 -0.66118938E+000
  0.42588859E+001
 -0.13889355E+000
  0.51665328E+001
 -0.90764687E+000
  0.51665328E+001
  0.00000000E+000
  0.13862485E+001
  0.00000000E+000
 -0.14169781E+001
  0.00000000E+000
 -0.86874173E+000
  0.00000000E+000
 -0.91038324E+000
  0.00000000E+000
 -0.87345561E+000
  0.00000000E+000
 -0.77549275E+000
  0.00000000E+000
 -0.66118938E+000
  0.00000000E+000
 -0.13889355E+000
  0.00000000E+000
 -0.90764687E+000
  0.51665328E+001
  0.62177196E+000
  0.76447652E+000
 -0.16275983E+000
 -0.63244633E+000
 -0.55881598E+000
 -0.47268559E+000
 -0.98878072E+000
 -0.48041850E+000
 -0.13656531E+001
 -0.49658323E+000
 -0.16950467E+001
 -0.44609917E+000
 -0.19599539E+001
 -0.39628213E+000
 -0.19759846E+001
 -0.12286283E+000
 -0.23586196E+001
 -0.52501189E+000
  0.28079131E+001
  0.48283926E+000
  0.28163725E+000
 -0.21528335E-001
 -0.12807873E+000
 -0.31681317E+000
 -0.17740075E+000
 -0.62561443E+000
 -0.17161725E+000
 -0.92797431E+000
 -0.19422335E+000
 -0.11940622E+001
 -0.18001129E+000
 -0.14199762E+001
 -0.17036812E+000
 -0.14675308E+001
 -0.75308235E-001
 -0.17727445E+001
 -0.21979814E+000
  0.10351686E+001
  0.22309901E+000
  0.58538243E-001
  0.10441774E+000
 -0.93974613E-002
 -0.52605943E-001
 -0.20377061E-001
 -0.20052039E+000
 -0.23702803E-001
 -0.36249359E+000
 -0.32250146E-001
 -0.50971649E+000
 -0.32788387E-001
 -0.64595517E+000
 -0.34129441E-001
 -0.70040404E+000
 -0.20859365E-001
 -0.87786150E+000
 -0.42340690E-001
  0.15730711E+000
  0.57766318E-001
  0.77192537E-003
  0.48388134E-001
 -0.19277702E-004
  0.28034192E-001
 -0.23118700E-004
  0.44529298E-002
 -0.12154133E-003
 -0.27553822E-001
 -0.24339420E-003
 -0.60056554E-001
 -0.28565522E-003
 -0.93844979E-001
 -0.34101608E-003
 -0.11442138E+000
 -0.28296809E-003
 -0.15634496E+000
 -0.41710465E-003