<?xml version="1.0"?>
<VTKFile type="PolyData" version="0.1" byte_order="LittleEndian">
  <PolyData>
    <Piece NumberOfPoints="     10" NumberOfVerts="  0" NumberOfLines="      9"
           NumberOfStrips="  0" NumberOfPolys="      0">
      <Points>
        <DataArray type="Float32" NumberOfComponents="3" format="ascii">
                       0.25262                       0.05400                     113.18095
                       5.58542                      19.82433                     100.79175
                       9.42636                      33.93121                      88.71732
                      12.66978                      45.70450                      76.55355
                      14.23881                      51.37558                      64.21505
                      14.23578                      51.28866                      51.95115
                      12.65584                      45.54391                      39.65217
                       9.40999                      33.84979                      27.40475
                       5.50721                      19.80056                      15.26336
                       0.00017                       0.00004                       3.00019
        </DataArray>
      </Points>
      <PointData>
        <DataArray type="Float32" Name="TranslationalVelocity" NumberOfComponents="3" format="ascii">
                       3.08714                       0.74760                      -0.00926
                     -34.27704                      10.06061                      -1.28488
                     -60.68345                      18.30465                      -0.30457
                     -82.56091                      24.84136                       0.58888
                     -93.37910                      26.18254                      -0.09967
                     -93.09754                      25.32067                      -0.16446
                     -82.18759                      23.07326                      -0.55588
                     -60.85953                      17.48779                      -0.61196
                     -35.66702                       9.92544                      -0.00279
                      -0.00053                      -0.00035                       0.00031
        </DataArray>
        <DataArray type="Float32" Name="RotationalVelocity" NumberOfComponents="3" format="ascii">
                      -0.02126                       0.09859                       1.81329
                       0.01871                       0.12446                       1.80080
                       0.14343                       0.03078                       1.83220
                      -0.07518                       0.00052                       1.88998
                      -0.14612                       0.00766                       1.88064
                       0.01727                      -0.03816                       1.81420
                       0.06273                      -0.05080                       1.78991
                      -0.05087                       0.00348                       1.79581
                      -0.01635                       0.00231                       1.79997
                       0.02430                       0.00611                       1.80176
        </DataArray>
        <DataArray type="Float32" Name="TranslationalAcceleration" NumberOfComponents="3" format="ascii">
                      12.19859                      -7.58821                      -0.38713
                      10.03179                      -3.21486                       4.47448
                       0.90383                     -16.14416                      -9.18310
                      -5.32585                      -7.58906                      -9.19218
                      -3.85264                       7.99154                      -0.30851
                      -1.91554                       6.68739                       1.16185
                      -1.84614                      -3.29975                       7.06658
                      -2.31453                      -8.09983                       6.69973
                       0.29430                       1.48488                      -0.81226
                       0.00454                       0.00252                      -0.04917
        </DataArray>
        <DataArray type="Float32" Name="OrientationX" NumberOfComponents="3" format="ascii">
                       0.71539                       0.69867                      -0.00901
                       0.28704                       0.95790                       0.00650
                       0.26598                       0.96398                      -0.00143
                       0.25576                       0.96672                      -0.00685
                       0.26901                       0.96313                       0.00174
                       0.27506                       0.96140                       0.00642
                       0.26258                       0.96491                      -0.00130
                       0.26514                       0.96421                      -0.00114
                       0.27051                       0.96272                       0.00102
                       0.26826                       0.96333                       0.00609
        </DataArray>
        <DataArray type="Float32" Name="OrientationY" NumberOfComponents="3" format="ascii">
                       0.69871                      -0.71539                       0.00411
                       0.95792                      -0.28703                      -0.00224
                       0.96397                      -0.26598                      -0.00308
                       0.96674                      -0.25578                      -0.00123
                       0.96314                      -0.26901                      -0.00012
                       0.96142                      -0.27507                      -0.00019
                       0.96491                      -0.26258                      -0.00035
                       0.96421                      -0.26514                       0.00002
                       0.96272                      -0.27051                       0.00012
                       0.96329                      -0.26830                       0.00901
        </DataArray>
        <DataArray type="Float32" Name="OrientationZ" NumberOfComponents="3" format="ascii">
                      -0.00357                      -0.00924                      -0.99995
                      -0.00028                       0.00687                      -0.99998
                      -0.00335                      -0.00056                      -0.99999
                      -0.00294                      -0.00630                      -0.99998
                       0.00036                       0.00170                      -1.00000
                       0.00158                       0.00623                      -0.99998
                      -0.00068                      -0.00116                      -1.00000
                      -0.00029                      -0.00110                      -1.00000
                       0.00039                       0.00095                      -1.00000
                       0.01031                       0.00345                      -0.99994
        </DataArray>
      </PointData>
      <Lines>
        <DataArray type="Int32" Name="connectivity" format="ascii">
      0      1
      1      2
      2      3
      3      4
      4      5
      5      6
      6      7
      7      8
      8      9
        </DataArray>
        <DataArray type="Int32" Name="offsets" format="ascii">
      2
      4
      6
      8
     10
     12
     14
     16
     18
        </DataArray>
      </Lines>
    </Piece>
  </PolyData>
</VTKFile>
