<?xml version="1.0"?>
<VTKFile type="PolyData" version="0.1" byte_order="LittleEndian">
  <PolyData>
    <Piece NumberOfPoints="     10" NumberOfVerts="  0" NumberOfLines="      9"
           NumberOfStrips="  0" NumberOfPolys="      0">
      <Points>
        <DataArray type="Float32" NumberOfComponents="3" format="ascii">
                       0.21697                      -0.04818                     101.06356
                       1.94681                      -1.62312                     101.03872
                       3.67608                      -3.19872                     101.01221
                       5.40503                      -4.77465                     100.98487
                       7.13350                      -6.35110                     100.95726
                       8.86228                      -7.92808                     100.93278
                      10.59200                      -9.50317                     100.90941
                      12.32094                     -11.07913                     100.88880
                      14.04891                     -12.65613                     100.87067
                      15.77541                     -14.23477                     100.86106
        </DataArray>
      </Points>
      <PointData>
        <DataArray type="Float32" Name="TranslationalVelocity" NumberOfComponents="3" format="ascii">
                       1.84480                       0.31299                      -0.00227
                       4.71189                       3.46295                      -0.24390
                       7.58570                       6.61807                      -0.49169
                      10.46447                       9.77754                      -0.73916
                      13.34760                      12.93978                      -0.98008
                      16.23840                      16.10632                      -1.20765
                      19.12320                      19.27455                      -1.41568
                      22.00993                      22.44116                      -1.59945
                      24.89774                      25.60462                      -1.75382
                      27.78724                      28.76306                      -1.87367
        </DataArray>
        <DataArray type="Float32" Name="RotationalVelocity" NumberOfComponents="3" format="ascii">
                       0.07133                       0.07161                       1.81785
                       0.06554                       0.08183                       1.82125
                       0.05792                       0.09086                       1.82426
                       0.04877                       0.09818                       1.82670
                       0.03813                       0.10387                       1.82858
                       0.01271                       0.11058                       1.83064
                      -0.00193                       0.11175                       1.83085
                      -0.01775                       0.11158                       1.83050
                      -0.03478                       0.10994                       1.82962
                      -0.05287                       0.10706                       1.82820
        </DataArray>
        <DataArray type="Float32" Name="TranslationalAcceleration" NumberOfComponents="3" format="ascii">
                       9.78975                      -5.93434                      -0.08562
                       9.12007                      -5.04174                      -0.10085
                       8.72068                      -4.33493                      -0.13804
                       8.33699                      -3.60766                      -0.23388
                       7.96814                      -2.86572                      -0.41743
                      13.08641                      -6.63838                      -0.78400
                      12.75512                      -5.88287                      -1.20328
                      12.43987                      -5.12112                      -1.81504
                      12.12495                      -4.35045                      -2.58001
                      11.82583                      -3.56959                      -3.45373
        </DataArray>
        <DataArray type="Float32" Name="OrientationX" NumberOfComponents="3" format="ascii">
                       0.00615                      -0.00427                       0.99997
                       0.00687                      -0.00523                       0.99996
                       0.00753                      -0.00607                       0.99995
                       0.00811                      -0.00677                       0.99994
                       0.00861                      -0.00732                       0.99994
                       0.00927                      -0.00792                       0.99993
                       0.00939                      -0.00791                       0.99992
                       0.00936                      -0.00768                       0.99993
                       0.00454                      -0.00216                       0.99999
                      -0.00435                       0.01097                       0.99993
        </DataArray>
        <DataArray type="Float32" Name="OrientationY" NumberOfComponents="3" format="ascii">
                      -0.66895                      -0.74331                       0.00094
                      -0.66943                      -0.74287                       0.00072
                      -0.67009                      -0.74228                       0.00055
                      -0.67094                      -0.74151                       0.00043
                      -0.67201                      -0.74055                       0.00036
                      -0.67488                      -0.73793                       0.00042
                      -0.67680                      -0.73617                       0.00053
                      -0.67904                      -0.73410                       0.00072
                      -0.68205                      -0.73130                       0.00152
                      -0.65980                      -0.75142                       0.00537
        </DataArray>
        <DataArray type="Float32" Name="OrientationZ" NumberOfComponents="3" format="ascii">
                       0.74328                      -0.66894                      -0.00743
                       0.74284                      -0.66941                      -0.00861
                       0.74224                      -0.67006                      -0.00966
                       0.74147                      -0.67091                      -0.01056
                       0.74050                      -0.67197                      -0.01129
                       0.73787                      -0.67483                      -0.01219
                       0.73611                      -0.67675                      -0.01226
                       0.73404                      -0.67900                      -0.01209
                       0.73129                      -0.68205                      -0.00480
                       0.75142                      -0.65974                       0.01050
        </DataArray>
      </PointData>
      <Lines>
        <DataArray type="Int32" Name="connectivity" format="ascii">
      0      1
      1      2
      2      3
      3      4
      4      5
      5      6
      6      7
      7      8
      8      9
        </DataArray>
        <DataArray type="Int32" Name="offsets" format="ascii">
      2
      4
      6
      8
     10
     12
     14
     16
     18
        </DataArray>
      </Lines>
    </Piece>
  </PolyData>
</VTKFile>
