# vtk DataFile Version 2.0
BldPointCP.BldA
ASCII
 
DATASET POLYDATA
POINTS 9 double
 -0.11185473E+002 -0.20505399E+001  0.10644295E+003
 -0.27602935E+002 -0.50776970E+001  0.94746402E+002
 -0.40611972E+002 -0.75104300E+001  0.82478411E+002
 -0.49378592E+002 -0.91701307E+001  0.70179917E+002
 -0.52223601E+002 -0.97165174E+001  0.58192396E+002
 -0.49386729E+002 -0.91870135E+001  0.46205843E+002
 -0.40617717E+002 -0.75240221E+001  0.33904464E+002
 -0.27627546E+002 -0.50837457E+001  0.21613219E+002
 -0.11273840E+002 -0.20679943E+001  0.98263772E+001
  
POINT_DATA 9
SCALARS Gamma_LL double
LOOKUP_TABLE default
 -0.51494908E+001
 -0.16153997E+003
 -0.14340084E+003
 -0.12383816E+003
 -0.11906972E+003
 -0.11311480E+003
 -0.12183001E+003
 -0.15165461E+003
 -0.73803696E+002
VECTORS Vind_CP double
  0.89204361E-001 -0.23667110E+000  0.11071450E+000
 -0.42036495E+000  0.10641491E-001  0.42926316E+000
 -0.52696489E+000 -0.22533439E-001  0.37567568E+000
 -0.71373957E+000 -0.65836171E-001  0.22925064E+000
 -0.82360679E+000 -0.91227649E-001  0.58605454E-002
 -0.65711136E+000 -0.71249315E-001 -0.19042150E+000
 -0.45058687E+000 -0.29009683E-001 -0.30418975E+000
 -0.43397507E+000 -0.19057110E-001 -0.41823649E+000
 -0.16375899E+000 -0.12407676E-001 -0.66899845E-001
VECTORS Vtot_CP double
  0.11830101E+002  0.20010011E+002 -0.14054084E+001
  0.67729971E+001  0.50703477E+002 -0.28480582E+001
  0.15995654E+001  0.75135553E+002 -0.27475810E+001
 -0.28774409E+001  0.91881522E+002 -0.20481576E+001
 -0.43768230E+001  0.97518068E+002 -0.20433436E+001
 -0.27666670E+001  0.92063810E+002 -0.19992808E+001
  0.17327682E+001  0.75242323E+002 -0.12622217E+001
  0.72620319E+001  0.50719010E+002 -0.57722611E+000
  0.13274142E+002  0.20541913E+002 -0.68333612E-001
VECTORS Vstr_CP double
  0.54591039E+001 -0.20246682E+002  0.15161229E+001
  0.10006638E+002 -0.50692835E+002  0.32773214E+001
  0.15073470E+002 -0.75158086E+002  0.31232567E+001
  0.19363701E+002 -0.91947358E+002  0.22774083E+001
  0.20753216E+002 -0.97609295E+002  0.20492042E+001
  0.19309556E+002 -0.92135059E+002  0.18088593E+001
  0.15016645E+002 -0.75271332E+002  0.95803191E+000
  0.95039930E+001 -0.50738067E+002  0.15898962E+000
  0.37620988E+001 -0.20554320E+002  0.14337674E-002
VECTORS Vwnd_CP double
  0.17200000E+002  0.00000000E+000  0.00000000E+000
  0.17200000E+002  0.00000000E+000  0.00000000E+000
  0.17200000E+002  0.00000000E+000  0.00000000E+000
  0.17200000E+002  0.00000000E+000  0.00000000E+000
  0.17200000E+002  0.00000000E+000  0.00000000E+000
  0.17200000E+002  0.00000000E+000  0.00000000E+000
  0.17200000E+002  0.00000000E+000  0.00000000E+000
  0.17200000E+002  0.00000000E+000  0.00000000E+000
  0.17200000E+002  0.00000000E+000  0.00000000E+000
VECTORS Tangent double
 -0.82940366E+000  0.55862188E+000 -0.55826296E-002
 -0.18472767E+000  0.98278968E+000  0.36096235E-003
 -0.18358209E+000  0.98300438E+000 -0.48329228E-004
 -0.17692261E+000  0.98422390E+000 -0.13037754E-002
 -0.17386996E+000  0.98476861E+000 -0.17108186E-003
 -0.17319408E+000  0.98488771E+000 -0.34071209E-004
 -0.17427342E+000  0.98469730E+000  0.65022336E-004
 -0.17653506E+000  0.98429423E+000  0.48897388E-003
 -0.17826821E+000  0.98398187E+000  0.35108517E-003
VECTORS Normal double
 -0.36068832E+000 -0.52784083E+000  0.76895253E+000
 -0.63204577E+000 -0.11908218E+000  0.76572683E+000
 -0.70321961E+000 -0.13129622E+000  0.69874422E+000
 -0.88287310E+000 -0.15811818E+000  0.44219196E+000
 -0.98476835E+000 -0.17386978E+000  0.77474093E-003
 -0.88342872E+000 -0.15536764E+000 -0.44205722E+000
 -0.70441388E+000 -0.12462224E+000 -0.69876347E+000
 -0.63551893E+000 -0.11360216E+000 -0.76368203E+000
 -0.50353704E+000 -0.90919362E-001 -0.85917642E+000
VECTORS Orth double
 -0.42660697E+000 -0.63978563E+000 -0.63928150E+000
 -0.75259141E+000 -0.14122279E+000 -0.64316583E+000
 -0.68686228E+000 -0.12831091E+000 -0.71537159E+000
 -0.43500974E+000 -0.79384822E-001 -0.89691949E+000
 -0.73319458E-003 -0.30318018E-003 -0.99999969E+000
  0.43538202E+000  0.76531593E-001 -0.89698685E+000
  0.68806240E+000  0.12182170E+000 -0.71535279E+000
  0.75163227E+000  0.13512741E+000 -0.64559238E+000
  0.84538210E+000  0.15334063E+000 -0.51167936E+000
