# vtk DataFile Version 2.0

ASCII
 
DATASET POLYDATA
POINTS 60 double
  0.22148872E-001  0.38047705E-002  0.11318210E+003
 -0.20491423E+002 -0.14814801E+001  0.10096471E+003
 -0.34949812E+002 -0.25320944E+001  0.88724425E+002
 -0.47041349E+002 -0.34158482E+001  0.76470067E+002
 -0.53089895E+002 -0.38601502E+001  0.64226037E+002
 -0.53090827E+002 -0.38612664E+001  0.51984255E+002
 -0.47041130E+002 -0.34217037E+001  0.39741403E+002
 -0.34951585E+002 -0.25347903E+001  0.27482981E+002
 -0.20497843E+002 -0.14835644E+001  0.15241403E+002
  0.13959996E-003  0.30707559E-004  0.30000914E+001
 -0.44660557E+001 -0.32176496E+000  0.11317718E+003
 -0.20816498E+002  0.29187786E+001  0.10096649E+003
 -0.35183838E+002  0.55591683E+000  0.88728516E+002
 -0.47223053E+002 -0.96711176E+000  0.76471566E+002
 -0.53253774E+002 -0.16103349E+001  0.64226278E+002
 -0.53257055E+002 -0.15676466E+001  0.51982957E+002
 -0.47225350E+002 -0.82794819E+000  0.39737811E+002
 -0.35195058E+002  0.88216489E+000  0.27482666E+002
 -0.20820214E+002  0.30048738E+001  0.15241458E+002
 -0.32439715E+000  0.44883128E+001  0.30001563E+001
 -0.43097819E+001 -0.24210830E+000  0.11317988E+003
 -0.20589705E+002  0.32946515E+001  0.10095441E+003
 -0.34995225E+002  0.11946450E+001  0.88714723E+002
 -0.47069201E+002 -0.10646947E+000  0.76464051E+002
 -0.53113617E+002 -0.63777856E+000  0.64219545E+002
 -0.53115637E+002 -0.59430921E+000  0.51976102E+002
 -0.47070422E+002  0.34798107E-001  0.39731752E+002
 -0.35003218E+002  0.15216124E+001  0.27483305E+002
 -0.20591493E+002  0.33813613E+001  0.15241669E+002
 -0.71493942E-001  0.44933742E+001  0.30003147E+001
 -0.41486898E+001 -0.16180058E+000  0.11318174E+003
 -0.20354583E+002  0.36688569E+001  0.10094591E+003
 -0.34793505E+002  0.18310265E+001  0.88704827E+002
 -0.46895872E+002  0.75089733E+000  0.76458782E+002
 -0.52951413E+002  0.33088490E+000  0.64215203E+002
 -0.52952548E+002  0.37472727E+000  0.51972008E+002
 -0.46897067E+002  0.89396682E+000  0.39728529E+002
 -0.34799524E+002  0.21587753E+001  0.27484258E+002
 -0.20355710E+002  0.37560971E+001  0.15242065E+002
  0.18163623E+000  0.44970244E+001  0.30002954E+001
 -0.39824603E+001 -0.81048151E-001  0.11318256E+003
 -0.20111953E+002  0.40413371E+001  0.10094155E+003
 -0.34579742E+002  0.24649046E+001  0.88699342E+002
 -0.46703796E+002  0.16045941E+001  0.76455990E+002
 -0.52767848E+002  0.12951550E+001  0.64213198E+002
 -0.52768466E+002  0.13390417E+001  0.51970424E+002
 -0.46705230E+002  0.17489584E+001  0.39727654E+002
 -0.34583994E+002  0.27933572E+001  0.27484905E+002
 -0.20112927E+002  0.41289569E+001  0.15242399E+002
  0.43479382E+000  0.44992100E+001  0.30002981E+001
 -0.38120405E+001 -0.55312340E-004  0.11318274E+003
 -0.19863238E+002  0.44122317E+001  0.10094043E+003
 -0.34356308E+002  0.30968274E+001  0.88697784E+002
 -0.46495153E+002  0.24554437E+001  0.76455231E+002
 -0.52564451E+002  0.22557209E+001  0.64212744E+002
 -0.52564454E+002  0.22995807E+001  0.51970158E+002
 -0.46495153E+002  0.26002652E+001  0.39727672E+002
 -0.34356306E+002  0.34255733E+001  0.27485119E+002
 -0.19863239E+002  0.44999816E+001  0.15242522E+002
  0.68788371E+000  0.44999358E+001  0.30003100E+001
  
POLYGONS 45 225
      4      0      1     11     10
      4      1      2     12     11
      4      2      3     13     12
      4      3      4     14     13
      4      4      5     15     14
      4      5      6     16     15
      4      6      7     17     16
      4      7      8     18     17
      4      8      9     19     18
      4     10     11     21     20
      4     11     12     22     21
      4     12     13     23     22
      4     13     14     24     23
      4     14     15     25     24
      4     15     16     26     25
      4     16     17     27     26
      4     17     18     28     27
      4     18     19     29     28
      4     20     21     31     30
      4     21     22     32     31
      4     22     23     33     32
      4     23     24     34     33
      4     24     25     35     34
      4     25     26     36     35
      4     26     27     37     36
      4     27     28     38     37
      4     28     29     39     38
      4     30     31     41     40
      4     31     32     42     41
      4     32     33     43     42
      4     33     34     44     43
      4     34     35     45     44
      4     35     36     46     45
      4     36     37     47     46
      4     37     38     48     47
      4     38     39     49     48
      4     40     41     51     50
      4     41     42     52     51
      4     42     43     53     52
      4     43     44     54     53
      4     44     45     55     54
      4     45     46     56     55
      4     46     47     57     56
      4     47     48     58     57
      4     48     49     59     58
  
CELL_DATA 45
SCALARS Gamma double
LOOKUP_TABLE default
 -0.81856091E+000
 -0.21541708E+002
 -0.18744617E+002
 -0.18631326E+002
 -0.19216129E+002
 -0.18418026E+002
 -0.18723285E+002
 -0.21655029E+002
 -0.11135103E+002
 -0.81856091E+000
 -0.21541708E+002
 -0.18744617E+002
 -0.18631326E+002
 -0.19216129E+002
 -0.18418026E+002
 -0.18723285E+002
 -0.21655029E+002
 -0.11135103E+002
 -0.16983547E+000
 -0.43158211E+001
 -0.37588562E+001
 -0.38076947E+001
 -0.39630860E+001
 -0.38217750E+001
 -0.38456670E+001
 -0.43977668E+001
 -0.22764939E+001
 -0.20358333E-002
 -0.50129804E-001
 -0.43769850E-001
 -0.45116199E-001
 -0.47341231E-001
 -0.45934438E-001
 -0.45782683E-001
 -0.51804677E-001
 -0.27059359E-001
 -0.00000000E+000
 -0.00000000E+000
 -0.00000000E+000
 -0.00000000E+000
 -0.00000000E+000
 -0.00000000E+000
 -0.00000000E+000
 -0.00000000E+000
 -0.00000000E+000
POINT_DATA 60
VECTORS Uconv double
  0.00000000E+000  0.00000000E+000  0.00000000E+000
  0.00000000E+000  0.00000000E+000  0.00000000E+000
  0.00000000E+000  0.00000000E+000  0.00000000E+000
  0.00000000E+000  0.00000000E+000  0.00000000E+000
  0.00000000E+000  0.00000000E+000  0.00000000E+000
  0.00000000E+000  0.00000000E+000  0.00000000E+000
  0.00000000E+000  0.00000000E+000  0.00000000E+000
  0.00000000E+000  0.00000000E+000  0.00000000E+000
  0.00000000E+000  0.00000000E+000  0.00000000E+000
  0.00000000E+000  0.00000000E+000  0.00000000E+000
  0.00000000E+000  0.00000000E+000  0.00000000E+000
  0.00000000E+000  0.00000000E+000  0.00000000E+000
  0.00000000E+000  0.00000000E+000  0.00000000E+000
  0.00000000E+000  0.00000000E+000  0.00000000E+000
  0.00000000E+000  0.00000000E+000  0.00000000E+000
  0.00000000E+000  0.00000000E+000  0.00000000E+000
  0.00000000E+000  0.00000000E+000  0.00000000E+000
  0.00000000E+000  0.00000000E+000  0.00000000E+000
  0.00000000E+000  0.00000000E+000  0.00000000E+000
  0.00000000E+000  0.00000000E+000  0.00000000E+000
  0.17196574E+002 -0.51603181E-002 -0.15859098E-001
  0.17191905E+002  0.12191954E-002  0.19517058E-001
  0.17184042E+002  0.19582777E-002  0.15038932E-001
  0.17185220E+002  0.84446384E-003  0.90978146E-002
  0.17170948E+002  0.22910646E-002  0.21132241E-002
  0.17170769E+002  0.22984981E-002 -0.22586483E-002
  0.17184746E+002  0.76411518E-003 -0.95794751E-002
  0.17183874E+002  0.16908152E-002 -0.15610773E-001
  0.17190122E+002  0.19000595E-002 -0.78323448E-002
  0.17190112E+002 -0.55121009E-002  0.25458864E-001
  0.17196394E+002 -0.52608394E-002 -0.16209406E-001
  0.17193602E+002 -0.13331474E-004  0.15669779E-001
  0.17189986E+002 -0.42096137E-004  0.89122916E-002
  0.17189334E+002 -0.87901984E-004  0.52140946E-002
  0.17184864E+002 -0.16973586E-003  0.20613254E-002
  0.17184815E+002 -0.19520501E-003 -0.22396253E-002
  0.17188934E+002 -0.13796402E-003 -0.56495015E-002
  0.17190003E+002 -0.30179896E-003 -0.93124054E-002
  0.17192354E+002  0.57026885E-003 -0.56477879E-002
  0.17189611E+002 -0.58446091E-002  0.27271509E-001
  0.17196201E+002 -0.53638044E-002 -0.16569924E-001
  0.17195031E+002 -0.10844013E-002  0.11297643E-001
  0.17195900E+002 -0.21040578E-002  0.27547919E-002
  0.17194117E+002 -0.12390862E-002  0.74080890E-003
  0.17199077E+002 -0.29835227E-002  0.19899529E-002
  0.17198923E+002 -0.30121905E-002 -0.21826319E-002
  0.17193848E+002 -0.12922516E-002 -0.10776232E-002
  0.17196069E+002 -0.23857667E-002 -0.30115379E-002
  0.17194390E+002 -0.68915446E-003 -0.36990852E-002
  0.17189076E+002 -0.61231261E-002  0.29075949E-001
  0.17195996E+002 -0.54680314E-002 -0.16938396E-001
  0.17196210E+002 -0.18675602E-002  0.71746001E-002
  0.17201615E+002 -0.41482790E-002 -0.32671836E-002
  0.17199228E+002 -0.25348458E-002 -0.39936969E-002
  0.17210352E+002 -0.54809084E-002  0.18986342E-002
  0.17210060E+002 -0.54875032E-002 -0.21163889E-002
  0.17199152E+002 -0.26404254E-002  0.37937051E-002
  0.17201905E+002 -0.45024025E-002  0.31228685E-002
  0.17196215E+002 -0.18488707E-002 -0.21024958E-002
  0.17188506E+002 -0.63481943E-002  0.30850826E-001
