<?xml version="1.0"?>
<VTKFile type="PolyData" version="0.1" byte_order="LittleEndian">
  <PolyData>
    <Piece NumberOfPoints="     10" NumberOfVerts="  0" NumberOfLines="      9"
           NumberOfStrips="  0" NumberOfPolys="      0">
      <Points>
        <DataArray type="Float32" NumberOfComponents="3" format="ascii">
                       0.34927                       0.07783                     113.18060
                      15.32539                     -13.84054                     100.73234
                      26.05145                     -23.80146                      88.67641
                      35.09543                     -32.09184                      76.56636
                      39.43130                     -36.00831                      64.21206
                      39.37952                     -35.84656                      51.94016
                      34.99274                     -31.82185                      39.64188
                      25.97349                     -23.66302                      27.41163
                      15.18129                     -13.85250                      15.27011
                       0.00016                       0.00003                       3.00020
        </DataArray>
      </Points>
      <PointData>
        <DataArray type="Float32" Name="TranslationalVelocity" NumberOfComponents="3" format="ascii">
                       3.34191                       0.83553                      -0.01342
                      27.05272                      27.93353                      -1.84634
                      45.10876                      46.02457                      -1.05200
                      60.39692                      61.33343                       0.18812
                      66.33863                      70.36011                      -0.46439
                      65.48627                      71.66759                      -0.53308
                      58.68766                      63.62732                      -0.79806
                      43.66970                      47.01435                      -0.60760
                      25.15414                      27.55111                       0.03413
                      -0.00027                      -0.00041                       0.00017
        </DataArray>
        <DataArray type="Float32" Name="RotationalVelocity" NumberOfComponents="3" format="ascii">
                      -0.00114                       0.09867                       1.81541
                      -0.05287                       0.10706                       1.82820
                      -0.13586                      -0.05859                       1.79406
                       0.05536                       0.00263                       1.71797
                       0.16400                       0.09199                       1.73156
                       0.04645                      -0.03618                       1.85613
                      -0.00368                      -0.06556                       1.88178
                       0.02541                       0.05836                       1.83258
                       0.00140                       0.02201                       1.81888
                       0.02351                       0.00750                       1.80181
        </DataArray>
        <DataArray type="Float32" Name="TranslationalAcceleration" NumberOfComponents="3" format="ascii">
                       8.83088                     -10.20616                       0.09724
                      13.34531                      -4.91099                      -3.33124
                       8.04413                       7.77310                     -15.80719
                      11.11495                       5.30685                     -16.89023
                      17.12152                      -8.34679                      -8.79736
                      10.90491                     -11.13783                      -6.73918
                       2.30419                      -2.94119                       0.30774
                      -1.82751                       3.79990                       2.53120
                       2.35016                      -0.99207                      -0.86565
                       0.01378                      -0.00232                       0.03390
        </DataArray>
        <DataArray type="Float32" Name="OrientationX" NumberOfComponents="3" format="ascii">
                       0.97721                      -0.21205                      -0.01027
                       0.75142                      -0.65974                       0.01050
                       0.73182                      -0.68150                       0.00067
                       0.72489                      -0.68886                      -0.00321
                       0.73485                      -0.67819                       0.00776
                       0.73802                      -0.67478                       0.00167
                       0.73213                      -0.68112                      -0.00820
                       0.73593                      -0.67705                      -0.00226
                       0.74093                      -0.67159                       0.00001
                       0.73746                      -0.67537                       0.00592
        </DataArray>
        <DataArray type="Float32" Name="OrientationY" NumberOfComponents="3" format="ascii">
                      -0.21212                      -0.97722                      -0.00711
                      -0.65980                      -0.75142                       0.00537
                      -0.68148                      -0.73180                       0.00751
                      -0.68886                      -0.72489                      -0.00003
                      -0.67820                      -0.73488                      -0.00154
                      -0.67478                      -0.73802                       0.00122
                      -0.68114                      -0.73216                       0.00073
                      -0.67705                      -0.73593                       0.00108
                      -0.67159                      -0.74093                       0.00006
                      -0.67527                      -0.73746                      -0.01249
        </DataArray>
        <DataArray type="Float32" Name="OrientationZ" NumberOfComponents="3" format="ascii">
                      -0.00853                       0.00913                      -0.99992
                       0.00435                      -0.01097                      -0.99993
                      -0.00463                      -0.00595                      -0.99997
                      -0.00230                       0.00223                      -0.99999
                       0.00674                      -0.00413                      -0.99997
                       0.00041                      -0.00203                      -1.00000
                      -0.00650                       0.00505                      -0.99997
                      -0.00239                       0.00074                      -1.00000
                      -0.00003                      -0.00005                      -1.00000
                       0.01280                       0.00521                      -0.99990
        </DataArray>
      </PointData>
      <Lines>
        <DataArray type="Int32" Name="connectivity" format="ascii">
      0      1
      1      2
      2      3
      3      4
      4      5
      5      6
      6      7
      7      8
      8      9
        </DataArray>
        <DataArray type="Int32" Name="offsets" format="ascii">
      2
      4
      6
      8
     10
     12
     14
     16
     18
        </DataArray>
      </Lines>
    </Piece>
  </PolyData>
</VTKFile>
