# vtk DataFile Version 2.0

ASCII
 
DATASET POLYDATA
POINTS 160 double
  0.25262052E+000  0.54003168E-001  0.11318095E+003
 -0.19792557E+002 -0.51583536E+001  0.10121957E+003
 -0.33894020E+002 -0.88784802E+001  0.89065598E+002
 -0.45438737E+002 -0.12003156E+002  0.76682257E+002
 -0.51227700E+002 -0.13590534E+002  0.64410181E+002
 -0.51240582E+002 -0.13609844E+002  0.52164162E+002
 -0.45441418E+002 -0.12035531E+002  0.39899302E+002
 -0.33886337E+002 -0.88699403E+001  0.27504911E+002
 -0.19890961E+002 -0.51737664E+001  0.15240871E+002
  0.17038799E-003  0.38027470E-004  0.30001886E+001
 -0.41028034E+001 -0.10758040E+001  0.11311916E+003
 -0.20919128E+002 -0.89235088E+000  0.10121593E+003
 -0.34698371E+002 -0.58878920E+001  0.89065975E+002
 -0.46045015E+002 -0.96237358E+001  0.76671633E+002
 -0.51761291E+002 -0.11398785E+002  0.64403786E+002
 -0.51785994E+002 -0.11375832E+002  0.52170501E+002
 -0.46059688E+002 -0.95098123E+001  0.39900926E+002
 -0.34720479E+002 -0.55474351E+001  0.27510217E+002
 -0.20999900E+002 -0.81254563E+000  0.15243699E+002
 -0.11218135E+001  0.43579206E+001  0.30036396E+001
 -0.39817105E+001 -0.10067960E+001  0.11314059E+003
 -0.20783031E+002 -0.50582836E+000  0.10121326E+003
 -0.34646990E+002 -0.52406143E+001  0.89037956E+002
 -0.46087754E+002 -0.87612935E+001  0.76653773E+002
 -0.51853647E+002 -0.10425390E+002  0.64382292E+002
 -0.51874845E+002 -0.10400066E+002  0.52140716E+002
 -0.46101836E+002 -0.86465160E+001  0.39868081E+002
 -0.34668332E+002 -0.49057451E+001  0.27487871E+002
 -0.20852739E+002 -0.42584101E+000  0.15234597E+002
 -0.87346532E+000  0.43769512E+001  0.30074664E+001
 -0.38576819E+001 -0.93683763E+000  0.11312281E+003
 -0.20637008E+002 -0.12005780E+000  0.10120917E+003
 -0.34581849E+002 -0.45926606E+001  0.89009937E+002
 -0.46116239E+002 -0.78963100E+001  0.76638952E+002
 -0.51930527E+002 -0.94486297E+001  0.64363341E+002
 -0.51948184E+002 -0.94209715E+001  0.52111417E+002
 -0.46128954E+002 -0.77800589E+001  0.39835104E+002
 -0.34602555E+002 -0.42622452E+001  0.27467512E+002
 -0.20696504E+002 -0.39676560E-001  0.15227660E+002
 -0.62497191E+000  0.43944427E+001  0.30108602E+001
 -0.37312399E+001 -0.86610253E+000  0.11312414E+003
 -0.20480186E+002  0.26399763E+000  0.10120820E+003
 -0.34501795E+002 -0.39446459E+001  0.88981339E+002
 -0.46127690E+002 -0.70293001E+001  0.76625810E+002
 -0.51989777E+002 -0.84690153E+001  0.64346372E+002
 -0.52004221E+002 -0.84390984E+001  0.52082971E+002
 -0.46138710E+002 -0.69110781E+001  0.39803294E+002
 -0.34521850E+002 -0.36175816E+001  0.27450475E+002
 -0.20531005E+002  0.34563262E+000  0.15222994E+002
 -0.37641436E+000  0.44097486E+001  0.30187259E+001
 -0.36019370E+001 -0.79486793E+000  0.11312506E+003
 -0.20314628E+002  0.64777798E+000  0.10119466E+003
 -0.34406296E+002 -0.32971142E+001  0.88951623E+002
 -0.46119134E+002 -0.61609250E+001  0.76612783E+002
 -0.52027578E+002 -0.74871568E+001  0.64330799E+002
 -0.52039262E+002 -0.74550633E+001  0.52056208E+002
 -0.46127956E+002 -0.60403314E+001  0.39774663E+002
 -0.34428770E+002 -0.29729146E+001  0.27434793E+002
 -0.20356282E+002  0.72986546E+000  0.15220255E+002
 -0.12782056E+000  0.44234816E+001  0.30269508E+001
 -0.34696584E+001 -0.72267638E+000  0.11312563E+003
 -0.20138543E+002  0.10294557E+001  0.10118237E+003
 -0.34298447E+002 -0.26512161E+001  0.88924282E+002
 -0.46083545E+002 -0.52925509E+001  0.76596090E+002
 -0.52036004E+002 -0.65041866E+001  0.64314580E+002
 -0.52047607E+002 -0.64697576E+001  0.52032137E+002
 -0.46093716E+002 -0.51686811E+001  0.39750806E+002
 -0.34319000E+002 -0.23280945E+001  0.27423520E+002
 -0.20172524E+002  0.11130022E+001  0.15218632E+002
  0.12087426E+000  0.44354061E+001  0.30321447E+001
 -0.33341343E+001 -0.64931108E+000  0.11312618E+003
 -0.19951372E+002  0.14090585E+001  0.10116759E+003
 -0.34173901E+002 -0.20065481E+001  0.88895187E+002
 -0.46024667E+002 -0.44242829E+001  0.76577957E+002
 -0.52012731E+002 -0.55210544E+001  0.64298754E+002
 -0.52022709E+002 -0.54845533E+001  0.52012014E+002
 -0.46033681E+002 -0.42972049E+001  0.39732834E+002
 -0.34188538E+002 -0.16833626E+001  0.27421541E+002
 -0.19979413E+002  0.14945827E+001  0.15218868E+002
  0.36986356E+000  0.44457789E+001  0.30357712E+001
 -0.31951687E+001 -0.57398645E+000  0.11312620E+003
 -0.19756496E+002  0.17873172E+001  0.10113032E+003
 -0.34031984E+002 -0.13637642E+001  0.88864135E+002
 -0.45948803E+002 -0.35581410E+001  0.76564576E+002
 -0.51951003E+002 -0.45396317E+001  0.64281513E+002
 -0.51959780E+002 -0.45011467E+001  0.51997171E+002
 -0.45954025E+002 -0.34278175E+001  0.39715812E+002
 -0.34040228E+002 -0.10402208E+001  0.27425022E+002
 -0.19781087E+002  0.18740746E+001  0.15214837E+002
  0.61933124E+000  0.44548137E+001  0.30393318E+001
 -0.30524084E+001 -0.49749275E+000  0.11312872E+003
 -0.19567620E+002  0.21638464E+001  0.10111224E+003
 -0.33868839E+002 -0.72302795E+000  0.88827334E+002
 -0.45845193E+002 -0.26937571E+001  0.76547356E+002
 -0.51856550E+002 -0.35615840E+001  0.64265730E+002
 -0.51863744E+002 -0.35213129E+001  0.51985163E+002
 -0.45847375E+002 -0.25602685E+001  0.39706197E+002
 -0.33875721E+002 -0.39872283E+000  0.27433423E+002
 -0.19581241E+002  0.22522086E+001  0.15202870E+002
  0.86938191E+000  0.44626421E+001  0.30426559E+001
 -0.29055567E+001 -0.41988750E+000  0.11313018E+003
 -0.19353881E+002  0.25394780E+001  0.10106152E+003
 -0.33690277E+002 -0.84794359E-001  0.88790890E+002
 -0.45714629E+002 -0.18319242E+001  0.76527149E+002
 -0.51726004E+002 -0.25877647E+001  0.64249065E+002
 -0.51735125E+002 -0.25459929E+001  0.51978466E+002
 -0.45708766E+002 -0.16953464E+001  0.39709071E+002
 -0.33695503E+002  0.24066537E+000  0.27445180E+002
 -0.19361572E+002  0.26296992E+001  0.15211432E+002
  0.11200785E+001  0.44689042E+001  0.30461662E+001
 -0.27543825E+001 -0.34124407E+000  0.11313190E+003
 -0.19131196E+002  0.29134087E+001  0.10102049E+003
 -0.33497839E+002  0.55113910E+000  0.88756807E+002
 -0.45553888E+002 -0.97314913E+000  0.76499596E+002
 -0.51571987E+002 -0.16185268E+001  0.64232973E+002
 -0.51575881E+002 -0.15754497E+001  0.51976424E+002
 -0.45547612E+002 -0.83378292E+000  0.39717030E+002
 -0.33501335E+002  0.87788685E+000  0.27460168E+002
 -0.19134467E+002  0.30055085E+001  0.15220018E+002
  0.13717007E+001  0.44748568E+001  0.30478882E+001
 -0.25987004E+001 -0.26169556E+000  0.11313339E+003
 -0.18901108E+002  0.32870643E+001  0.10098431E+003
 -0.33292704E+002  0.11847981E+001  0.88726125E+002
 -0.45373814E+002 -0.11743579E+000  0.76473618E+002
 -0.51393674E+002 -0.65287565E+000  0.64218633E+002
 -0.51396032E+002 -0.60899302E+000  0.51977258E+002
 -0.45367937E+002  0.24345335E-001  0.39727939E+002
 -0.33294561E+002  0.15128517E+001  0.27475975E+002
 -0.18900662E+002  0.33798790E+001  0.15225610E+002
  0.16235094E+001  0.44792405E+001  0.30503236E+001
 -0.24382411E+001 -0.18148767E+000  0.11313394E+003
 -0.18662127E+002  0.36585142E+001  0.10095130E+003
 -0.33075359E+002  0.18161606E+001  0.88700404E+002
 -0.45173264E+002  0.73496425E+000  0.76449788E+002
 -0.51201293E+002  0.30978433E+000  0.64207962E+002
 -0.51202377E+002  0.35399099E+000  0.51979817E+002
 -0.45168920E+002  0.87882796E+000  0.39741885E+002
 -0.33076605E+002  0.21454580E+001  0.27491258E+002
 -0.18659428E+002  0.37519736E+001  0.15227527E+002
  0.18754715E+001  0.44821740E+001  0.30533750E+001
 -0.22726963E+001 -0.10081352E+000  0.11313345E+003
 -0.18417410E+002  0.40283662E+001  0.10090938E+003
 -0.32850453E+002  0.24456619E+001  0.88683116E+002
 -0.44959589E+002  0.15843986E+001  0.76431904E+002
 -0.50989470E+002  0.12690361E+001  0.64199207E+002
 -0.50989893E+002  0.13132114E+001  0.51985297E+002
 -0.44956793E+002  0.17296965E+001  0.39754974E+002
 -0.32865042E+002  0.27777739E+001  0.27487181E+002
 -0.18412108E+002  0.41225300E+001  0.15239591E+002
  0.21273825E+001  0.44841666E+001  0.30549203E+001
 -0.21029976E+001 -0.19903361E-001  0.11313231E+003
 -0.18166032E+002  0.43982806E+001  0.10088664E+003
 -0.32633757E+002  0.30765862E+001  0.88689967E+002
 -0.44735273E+002  0.24319779E+001  0.76419613E+002
 -0.50770579E+002  0.22265614E+001  0.64194596E+002
 -0.50769898E+002  0.22705211E+001  0.51989268E+002
 -0.44732121E+002  0.25777377E+001  0.39765512E+002
 -0.32635026E+002  0.34073074E+001  0.27488900E+002
 -0.18157959E+002  0.44913280E+001  0.15246530E+002
  0.23791617E+001  0.44847258E+001  0.30568747E+001
  
POLYGONS 135 675
      4      0      1     11     10
      4      1      2     12     11
      4      2      3     13     12
      4      3      4     14     13
      4      4      5     15     14
      4      5      6     16     15
      4      6      7     17     16
      4      7      8     18     17
      4      8      9     19     18
      4     10     11     21     20
      4     11     12     22     21
      4     12     13     23     22
      4     13     14     24     23
      4     14     15     25     24
      4     15     16     26     25
      4     16     17     27     26
      4     17     18     28     27
      4     18     19     29     28
      4     20     21     31     30
      4     21     22     32     31
      4     22     23     33     32
      4     23     24     34     33
      4     24     25     35     34
      4     25     26     36     35
      4     26     27     37     36
      4     27     28     38     37
      4     28     29     39     38
      4     30     31     41     40
      4     31     32     42     41
      4     32     33     43     42
      4     33     34     44     43
      4     34     35     45     44
      4     35     36     46     45
      4     36     37     47     46
      4     37     38     48     47
      4     38     39     49     48
      4     40     41     51     50
      4     41     42     52     51
      4     42     43     53     52
      4     43     44     54     53
      4     44     45     55     54
      4     45     46     56     55
      4     46     47     57     56
      4     47     48     58     57
      4     48     49     59     58
      4     50     51     61     60
      4     51     52     62     61
      4     52     53     63     62
      4     53     54     64     63
      4     54     55     65     64
      4     55     56     66     65
      4     56     57     67     66
      4     57     58     68     67
      4     58     59     69     68
      4     60     61     71     70
      4     61     62     72     71
      4     62     63     73     72
      4     63     64     74     73
      4     64     65     75     74
      4     65     66     76     75
      4     66     67     77     76
      4     67     68     78     77
      4     68     69     79     78
      4     70     71     81     80
      4     71     72     82     81
      4     72     73     83     82
      4     73     74     84     83
      4     74     75     85     84
      4     75     76     86     85
      4     76     77     87     86
      4     77     78     88     87
      4     78     79     89     88
      4     80     81     91     90
      4     81     82     92     91
      4     82     83     93     92
      4     83     84     94     93
      4     84     85     95     94
      4     85     86     96     95
      4     86     87     97     96
      4     87     88     98     97
      4     88     89     99     98
      4     90     91    101    100
      4     91     92    102    101
      4     92     93    103    102
      4     93     94    104    103
      4     94     95    105    104
      4     95     96    106    105
      4     96     97    107    106
      4     97     98    108    107
      4     98     99    109    108
      4    100    101    111    110
      4    101    102    112    111
      4    102    103    113    112
      4    103    104    114    113
      4    104    105    115    114
      4    105    106    116    115
      4    106    107    117    116
      4    107    108    118    117
      4    108    109    119    118
      4    110    111    121    120
      4    111    112    122    121
      4    112    113    123    122
      4    113    114    124    123
      4    114    115    125    124
      4    115    116    126    125
      4    116    117    127    126
      4    117    118    128    127
      4    118    119    129    128
      4    120    121    131    130
      4    121    122    132    131
      4    122    123    133    132
      4    123    124    134    133
      4    124    125    135    134
      4    125    126    136    135
      4    126    127    137    136
      4    127    128    138    137
      4    128    129    139    138
      4    130    131    141    140
      4    131    132    142    141
      4    132    133    143    142
      4    133    134    144    143
      4    134    135    145    144
      4    135    136    146    145
      4    136    137    147    146
      4    137    138    148    147
      4    138    139    149    148
      4    140    141    151    150
      4    141    142    152    151
      4    142    143    153    152
      4    143    144    154    153
      4    144    145    155    154
      4    145    146    156    155
      4    146    147    157    156
      4    147    148    158    157
      4    148    149    159    158
  
CELL_DATA 135
SCALARS Gamma double
LOOKUP_TABLE default
 -0.45978567E+001
 -0.15980132E+003
 -0.14411729E+003
 -0.11440126E+003
 -0.99974593E+002
 -0.92543669E+002
 -0.10746903E+003
 -0.14353039E+003
 -0.65020927E+002
 -0.45978567E+001
 -0.15980132E+003
 -0.14411729E+003
 -0.11440126E+003
 -0.99974593E+002
 -0.92543669E+002
 -0.10746903E+003
 -0.14353039E+003
 -0.65020927E+002
 -0.47285441E+001
 -0.16045162E+003
 -0.14419142E+003
 -0.11671544E+003
 -0.10500911E+003
 -0.97698906E+002
 -0.11170522E+003
 -0.14576098E+003
 -0.67200707E+002
 -0.48659957E+001
 -0.16100426E+003
 -0.14412127E+003
 -0.11908272E+003
 -0.11019902E+003
 -0.10289716E+003
 -0.11562099E+003
 -0.14786472E+003
 -0.69415513E+002
 -0.50095155E+001
 -0.16144714E+003
 -0.14392381E+003
 -0.12148782E+003
 -0.11515820E+003
 -0.10810995E+003
 -0.11885418E+003
 -0.14990370E+003
 -0.71660577E+002
 -0.51494908E+001
 -0.16153997E+003
 -0.14340084E+003
 -0.12383816E+003
 -0.11906972E+003
 -0.11311480E+003
 -0.12183001E+003
 -0.15165461E+003
 -0.73803696E+002
 -0.51346537E+001
 -0.15665929E+003
 -0.13846815E+003
 -0.12263195E+003
 -0.11920674E+003
 -0.11390880E+003
 -0.12094731E+003
 -0.14870566E+003
 -0.73654135E+002
 -0.46587266E+001
 -0.13835549E+003
 -0.12171970E+003
 -0.11050393E+003
 -0.10856606E+003
 -0.10380919E+003
 -0.10921629E+003
 -0.13273300E+003
 -0.66919081E+002
 -0.38266154E+001
 -0.11048758E+003
 -0.96801330E+002
 -0.90032760E+002
 -0.89688879E+002
 -0.85493586E+002
 -0.89374969E+002
 -0.10715760E+003
 -0.54436325E+002
 -0.28342566E+001
 -0.79388323E+002
 -0.69385444E+002
 -0.66057483E+002
 -0.66650169E+002
 -0.63428619E+002
 -0.65857825E+002
 -0.77955958E+002
 -0.39714610E+002
 -0.17915563E+001
 -0.48619196E+002
 -0.42402214E+002
 -0.41280658E+002
 -0.42145739E+002
 -0.40220134E+002
 -0.41313394E+002
 -0.48317845E+002
 -0.24714688E+002
 -0.81856091E+000
 -0.21541708E+002
 -0.18744617E+002
 -0.18631326E+002
 -0.19216129E+002
 -0.18418026E+002
 -0.18723285E+002
 -0.21655029E+002
 -0.11135103E+002
 -0.16983547E+000
 -0.43158211E+001
 -0.37588562E+001
 -0.38076947E+001
 -0.39630860E+001
 -0.38217750E+001
 -0.38456670E+001
 -0.43977668E+001
 -0.22764939E+001
 -0.20358333E-002
 -0.50129804E-001
 -0.43769850E-001
 -0.45116199E-001
 -0.47341231E-001
 -0.45934438E-001
 -0.45782683E-001
 -0.51804677E-001
 -0.27059359E-001
 -0.00000000E+000
 -0.00000000E+000
 -0.00000000E+000
 -0.00000000E+000
 -0.00000000E+000
 -0.00000000E+000
 -0.00000000E+000
 -0.00000000E+000
 -0.00000000E+000
POINT_DATA 160
VECTORS Uconv double
  0.00000000E+000  0.00000000E+000  0.00000000E+000
  0.00000000E+000  0.00000000E+000  0.00000000E+000
  0.00000000E+000  0.00000000E+000  0.00000000E+000
  0.00000000E+000  0.00000000E+000  0.00000000E+000
  0.00000000E+000  0.00000000E+000  0.00000000E+000
  0.00000000E+000  0.00000000E+000  0.00000000E+000
  0.00000000E+000  0.00000000E+000  0.00000000E+000
  0.00000000E+000  0.00000000E+000  0.00000000E+000
  0.00000000E+000  0.00000000E+000  0.00000000E+000
  0.00000000E+000  0.00000000E+000  0.00000000E+000
  0.00000000E+000  0.00000000E+000  0.00000000E+000
  0.00000000E+000  0.00000000E+000  0.00000000E+000
  0.00000000E+000  0.00000000E+000  0.00000000E+000
  0.00000000E+000  0.00000000E+000  0.00000000E+000
  0.00000000E+000  0.00000000E+000  0.00000000E+000
  0.00000000E+000  0.00000000E+000  0.00000000E+000
  0.00000000E+000  0.00000000E+000  0.00000000E+000
  0.00000000E+000  0.00000000E+000  0.00000000E+000
  0.00000000E+000  0.00000000E+000  0.00000000E+000
  0.00000000E+000  0.00000000E+000  0.00000000E+000
  0.17123108E+002 -0.26640292E+000  0.14357508E+001
  0.16247403E+002  0.35971449E+000  0.27609299E+001
  0.15340649E+002  0.26612043E+000  0.17663091E+001
  0.15207110E+002  0.64799598E-001  0.11908026E+001
  0.15103400E+002  0.15900298E-001  0.40048427E+000
  0.15231897E+002  0.14920094E-001 -0.29529613E+000
  0.15506469E+002  0.27853145E-001 -0.95296434E+000
  0.15575625E+002  0.17436145E+000 -0.15591564E+001
  0.16112473E+002  0.34983166E+000 -0.84602046E+000
  0.16996933E+002 -0.40311046E-001  0.43045154E+000
  0.17141215E+002 -0.26308493E+000 -0.52931478E+000
  0.16320606E+002  0.32664904E+000  0.27152886E+001
  0.15394953E+002  0.26647342E+000  0.16947478E+001
  0.15104862E+002  0.78828058E-001  0.12431326E+001
  0.14848337E+002  0.22814826E-001  0.44316468E+000
  0.14969826E+002  0.18976359E-001 -0.33952953E+000
  0.15383155E+002  0.37923931E-001 -0.10232494E+001
  0.15613791E+002  0.18201324E+000 -0.15242955E+001
  0.16201563E+002  0.32027145E+000 -0.75148547E+000
  0.16990579E+002 -0.41813354E-001  0.40056602E+000
  0.17136058E+002 -0.26520172E+000 -0.55470085E+000
  0.16397560E+002  0.29191351E+000  0.26388982E+001
  0.15485439E+002  0.25814533E+000  0.16051641E+001
  0.15051094E+002  0.93505824E-001  0.12642128E+001
  0.14625912E+002  0.36328244E-001  0.47851944E+000
  0.14735799E+002  0.29633286E-001 -0.38503610E+000
  0.15298458E+002  0.50486302E-001 -0.10704486E+001
  0.15684327E+002  0.18295670E+000 -0.14595658E+001
  0.16295506E+002  0.28582270E+000 -0.64588608E+000
  0.16983825E+002 -0.62828522E-001  0.41428559E+000
  0.17130728E+002 -0.26746671E+000 -0.58340182E+000
  0.16476616E+002  0.24793421E+000  0.24900132E+001
  0.15611484E+002  0.23887059E+000  0.14808161E+001
  0.15066476E+002  0.10549671E+000  0.12424413E+001
  0.14482540E+002  0.54954449E-001  0.49985378E+000
  0.14576731E+002  0.46459132E-001 -0.41803550E+000
  0.15273667E+002  0.63025818E-001 -0.10829830E+001
  0.15390288E+002  0.13401783E+000 -0.17144163E+001
  0.16388216E+002  0.25052577E+000 -0.54040551E+000
  0.16976447E+002 -0.81567036E-001  0.42850771E+000
  0.17125196E+002 -0.26978604E+000 -0.62183487E+000
  0.16547471E+002  0.20146900E+000  0.23231625E+001
  0.15268525E+002  0.18073055E+000  0.18019759E+001
  0.15169531E+002  0.10730273E+000  0.11675104E+001
  0.14471354E+002  0.73178648E-001  0.49807145E+000
  0.14549881E+002  0.64653540E-001 -0.43259187E+000
  0.15333161E+002  0.70206386E-001 -0.10454392E+001
  0.15540434E+002  0.13130650E+000 -0.15631129E+001
  0.16475195E+002  0.21832565E+000 -0.42131522E+000
  0.16968428E+002 -0.95924224E-001  0.43763086E+000
  0.17119421E+002 -0.27202586E+000 -0.67194365E+000
  0.16671690E+002  0.13458841E+000  0.19600480E+001
  0.15481994E+002  0.15494151E+000  0.15886379E+001
  0.15371869E+002  0.95470450E-001  0.10326577E+001
  0.14640563E+002  0.82002834E-001  0.46639026E+000
  0.14700172E+002  0.74014280E-001 -0.41955213E+000
  0.15488064E+002  0.66526669E-001 -0.95147227E+000
  0.15722404E+002  0.11445907E+000 -0.13809309E+001
  0.16558767E+002  0.17338499E+000 -0.33449438E+000
  0.16959786E+002 -0.11061262E+000  0.45190804E+000
  0.17113736E+002 -0.27488233E+000 -0.74411130E+000
  0.16747649E+002  0.68653048E-001  0.16390582E+001
  0.15722815E+002  0.11311655E+000  0.13653209E+001
  0.14533084E+002  0.12103948E-001  0.17042335E+001
  0.15002841E+002  0.66881271E-001  0.41025192E+000
  0.15040411E+002  0.61445950E-001 -0.36543599E+000
  0.14837992E+002 -0.17586375E-001 -0.14961108E+001
  0.15935847E+002  0.82973900E-001 -0.12054416E+001
  0.16660027E+002  0.12776283E+000 -0.29990650E+000
  0.16950486E+002 -0.12367312E+000  0.46661198E+000
  0.17104611E+002 -0.27541601E+000 -0.61595652E+000
  0.16807301E+002  0.22881905E-001  0.12916939E+001
  0.15980107E+002  0.57440948E-001  0.11067910E+001
  0.15019245E+002 -0.10123384E-001  0.13902634E+001
  0.15061680E+002 -0.43204598E-002  0.53541103E+000
  0.15131643E+002 -0.89602954E-002 -0.48240075E+000
  0.15251631E+002 -0.32496103E-001 -0.12381485E+001
  0.16155687E+002  0.42241072E-001 -0.97864344E+000
  0.16746557E+002  0.82203319E-001 -0.30015971E+000
  0.16940494E+002 -0.13517889E+000  0.48172785E+000
  0.17097259E+002 -0.27736301E+000 -0.63462523E+000
  0.16780193E+002 -0.37045035E-001  0.82954107E-001
  0.16243763E+002 -0.76998574E-002  0.84169827E+000
  0.15549978E+002 -0.54980336E-001  0.10614404E+001
  0.15778684E+002 -0.72263090E-001  0.36971192E+000
  0.15815916E+002 -0.70035105E-001 -0.33667377E+000
  0.15714261E+002 -0.69760051E-001 -0.95190119E+000
  0.16383136E+002 -0.79348688E-002 -0.74502021E+000
  0.16825463E+002  0.43399744E-001  0.12833010E+000
  0.16930206E+002 -0.17162443E+000  0.53532970E+000
  0.17089476E+002 -0.27930727E+000 -0.65205293E+000
  0.16832206E+002 -0.95301006E-001 -0.18927576E+000
  0.16506890E+002 -0.78062460E-001  0.59630501E+000
  0.16079497E+002 -0.12113530E+000  0.70791564E+000
  0.16510097E+002 -0.16293283E+000  0.20309117E+000
  0.16518903E+002 -0.15821439E+000 -0.17731289E+000
  0.16180481E+002 -0.12204703E+000 -0.64476231E+000
  0.16611814E+002 -0.65505358E-001 -0.51138222E+000
  0.16889634E+002  0.41578734E-002  0.13288364E+000
  0.16918649E+002 -0.17491779E+000  0.54391601E+000
  0.17081170E+002 -0.28115190E+000 -0.66986495E+000
  0.16820127E+002 -0.12572074E+000 -0.61036540E+000
  0.16757947E+002 -0.15106030E+000  0.33725329E+000
  0.16566437E+002 -0.19286792E+000  0.37521276E+000
  0.17170053E+002 -0.26315725E+000  0.44871283E-001
  0.17157645E+002 -0.25427566E+000 -0.30902137E-001
  0.16599133E+002 -0.17992922E+000 -0.35791613E+000
  0.16833884E+002 -0.12672522E+000 -0.28260639E+000
  0.16939560E+002 -0.26367769E-001  0.22272865E+000
  0.16906297E+002 -0.17757821E+000  0.55535808E+000
  0.17072366E+002 -0.28297001E+000 -0.69262629E+000
  0.16892905E+002 -0.24077603E+000 -0.12139110E+001
  0.16994061E+002 -0.22324856E+000  0.93237309E-001
  0.16976120E+002 -0.26216807E+000  0.86337904E-001
  0.17690751E+002 -0.35070044E+000 -0.86077203E-001
  0.17651058E+002 -0.33655869E+000  0.95992920E-001
  0.16977665E+002 -0.23965781E+000 -0.94395793E-001
  0.17050288E+002 -0.19034272E+000 -0.89967813E-001
  0.16998516E+002 -0.49825126E-001  0.11473137E+000
  0.16893035E+002 -0.18876518E+000  0.60156870E+000
  0.17062801E+002 -0.28451780E+000 -0.71068174E+000
  0.16908244E+002 -0.22959125E+000 -0.11487584E+001
  0.17211160E+002 -0.29014650E+000 -0.13153352E+000
  0.17308729E+002 -0.32067442E+000 -0.14738461E+000
  0.18034880E+002 -0.41767417E+000 -0.17797533E+000
  0.17979238E+002 -0.40189138E+000  0.17912008E+000
  0.17283505E+002 -0.29162534E+000  0.12183421E+000
  0.17242536E+002 -0.24085692E+000  0.12052777E+000
  0.17043793E+002 -0.88468464E-001  0.20107888E+000
  0.16878703E+002 -0.19035613E+000  0.61109823E+000
  0.17052564E+002 -0.28575290E+000 -0.73029542E+000
  0.16946195E+002 -0.22652379E+000 -0.11200842E+001
  0.17405348E+002 -0.34027549E+000 -0.33633348E+000
  0.17555474E+002 -0.36418472E+000 -0.32635232E+000
  0.18225176E+002 -0.45341704E+000 -0.23870948E+000
  0.18180424E+002 -0.44380545E+000  0.23225821E+000
  0.17512500E+002 -0.33206284E+000  0.28975630E+000
  0.17419042E+002 -0.29387218E+000  0.30995830E+000
  0.17081720E+002 -0.11708612E+000  0.25551294E+000
  0.16863917E+002 -0.19012672E+000  0.62171308E+000
