<?xml version="1.0"?>
<VTKFile type="PolyData" version="0.1" byte_order="LittleEndian">
  <PolyData>
    <Piece NumberOfPoints="    165" NumberOfVerts="  0" NumberOfLines="      0"
           NumberOfStrips="  0" NumberOfPolys="      0">
      <Points>
        <DataArray type="Float32" NumberOfComponents="3" format="ascii">
                       0.16529                       0.03343                     113.18119
                      -6.68998                      -1.35149                     109.56818
                     -13.07653                      -2.64370                     105.95540
                     -18.99047                      -3.84398                     102.33620
                     -20.67250                      -4.18627                     101.24931
                     -24.42879                      -4.95242                      98.70667
                     -29.38136                      -5.96575                      95.05304
                     -33.84609                      -6.88327                      91.37647
                     -37.82498                      -7.70514                      87.68369
                     -41.32375                      -8.43197                      83.98429
                     -44.34933                      -9.06430                      80.28647
                     -46.90814                      -9.60242                      76.59534
                     -49.00348                     -10.04593                      72.91169
                     -50.63590                     -10.39386                      69.23388
                     -51.80496                     -10.64499                      65.55975
                     -52.50849                     -10.79786                      61.88706
                     -52.74372                     -10.85115                      58.21450
                     -52.50985                     -10.80423                      54.54178
                     -51.80773                     -10.65706                      50.86862
                     -50.64035                     -10.41037                      47.19371
                     -49.01023                     -10.06523                      43.51470
                     -46.91814                      -9.62261                      39.82922
                     -44.36312                      -9.08341                      36.13579
                     -41.34077                      -8.44814                      32.43607
                     -37.84434                      -7.71706                      28.73559
                     -33.86857                      -6.89078                      25.04080
                     -29.41056                      -5.97027                      21.35726
                     -24.47199                      -4.95690                      17.68528
                     -20.73241                      -4.19320                      15.11789
                     -19.05926                      -3.85264                      14.01721
                     -13.17661                      -2.65932                      10.34653
                      -6.82368                      -1.37574                       6.67361
                       0.00019                       0.00005                       3.00018
                       0.16529                       0.03343                     113.18119
                       2.35511                       6.62597                     109.47672
                       4.38887                      12.75796                     105.76389
                       6.27439                      18.43906                     102.06325
                       6.81213                      20.05737                     100.95846
                       8.01947                      23.68727                      98.40115
                       9.62521                      28.50946                      94.78203
                      11.08555                      32.88703                      91.17305
                      12.39474                      36.80214                      87.54974
                      13.54782                      40.24099                      83.89937
                      14.54197                      43.19780                      80.22237
                      15.37702                      45.67520                      76.52802
                      16.05480                      47.68155                      72.82779
                      16.57790                      49.22682                      69.13049
                      16.94885                      50.31997                      65.44071
                      17.16972                      50.96813                      61.75903
                      17.24194                      51.17590                      58.08294
                      17.16590                      50.94455                      54.40834
                      16.94110                      50.27242                      50.73117
                      16.56624                      49.15554                      47.04886
                      16.03977                      47.58914                      43.36079
                      15.35983                      45.56770                      39.66883
                      14.52411                      43.08443                      35.97806
                      13.53062                      40.13347                      32.29559
                      12.37843                      36.71210                      28.62778
                      11.06815                      32.82213                      24.97705
                       9.60222                      28.47084                      21.33777
                       7.98389                      23.66807                      17.69749
                       6.76181                      20.04190                      15.14128
                       6.21570                      18.42154                      14.04291
                       4.29704                      12.72989                      10.37316
                       2.22622                       6.59082                       6.68978
                       0.00019                       0.00005                       3.00018
                       0.16529                       0.03343                     113.18119
                       4.73580                      -5.20060                     109.48038
                       8.98357                     -10.07036                     105.77024
                      12.91881                     -14.58135                     102.07012
                      14.03994                     -15.86593                     100.96483
                      16.55438                     -18.74609                      98.40434
                      19.89446                     -22.57059                      94.77840
                      22.92878                     -26.04195                      91.16401
                      25.64728                     -29.14712                      87.53918
                      28.04144                     -31.87544                      83.89141
                      30.10663                     -34.22159                      80.21947
                      31.84245                     -36.18607                      76.53004
                      33.25205                     -37.77411                      72.83296
                      34.34043                     -38.99346                      69.13689
                      35.11265                     -39.85220                      65.44715
                      35.57313                     -40.35764                      61.76517
                      35.72488                     -40.51511                      58.08890
                      35.56856                     -40.32671                      54.41428
                      35.10276                     -39.79151                      50.73716
                      34.32414                     -38.90577                      47.05512
                      33.22878                     -37.66441                      43.36828
                      31.81271                     -36.06195                      39.67952
                      30.07218                     -34.09305                      35.99414
                      28.00527                     -31.75448                      32.31768
                      25.61254                     -29.04602                      28.65340
                      22.89660                     -25.97006                      25.00093
                      19.86215                     -22.53161                      21.35432
                      16.51390                     -18.73581                      17.70474
                      13.98483                     -15.86773                      15.14444
                      12.85425                     -14.58520                      14.04561
                       8.88250                     -10.07847                      10.37677
                       4.59878                      -5.21710                       6.69393
                       0.00019                       0.00005                       3.00018
                      -0.09835                      -0.01962                      15.12065
                      -2.07397                      -0.41716                      15.12088
                      -4.14747                      -0.83515                      15.12155
                      -6.22085                      -1.25376                      15.12236
                      -8.29412                      -1.67291                      15.12302
                     -10.36729                      -2.09248                      15.12334
                     -12.44039                      -2.51237                      15.12317
                     -14.51342                      -2.93250                      15.12246
                     -16.58643                      -3.35275                      15.12121
                     -18.65941                      -3.77301                      15.11960
                     -20.73241                      -4.19320                      15.11789
                       0.03166                       0.09482                      15.12065
                       0.67575                       2.00432                      15.12707
                       1.35187                       4.00857                      15.13354
                       2.02804                       6.01279                      15.13935
                       2.70425                       8.01700                      15.14415
                       3.38049                      10.02119                      15.14767
                       4.05676                      12.02536                      15.14972
                       4.73304                      14.02952                      15.15017
                       5.40931                      16.03366                      15.14898
                       6.08557                      18.03779                      15.14602
                       6.76181                      20.04190                      15.14128
                       0.06576                      -0.07500                      15.12065
                       1.39757                      -1.58731                      15.12722
                       2.79569                      -3.17446                      15.13383
                       4.19401                      -4.76144                      15.13977
                       5.59250                      -6.34828                      15.14472
                       6.99111                      -7.93499                      15.14844
                       8.38981                      -9.52161                      15.15072
                       9.78858                     -11.10817                      15.15148
                      11.18736                     -12.69469                      15.15068
                      12.58612                     -14.28120                      15.14832
                      13.98483                     -15.86773                      15.14444
                      -0.04018                      -0.01031                     101.06355
                      -2.01557                      -0.40868                     101.07040
                      -4.08886                      -0.82733                     101.08223
                      -6.16205                      -1.24643                     101.09797
                      -8.23513                      -1.66590                     101.11679
                     -10.30813                      -2.08567                     101.13789
                     -12.38106                      -2.50565                     101.16049
                     -14.45394                      -2.92578                     101.18382
                     -16.52679                      -3.34598                     101.20705
                     -18.59964                      -3.76617                     101.22923
                     -20.67250                      -4.18627                     101.24931
                       0.08984                       0.10413                     101.06355
                       0.73312                       2.01424                     101.05223
                       1.40844                       4.01910                     101.03985
                       2.08386                       6.02392                     101.02708
                       2.75936                       8.02871                     101.01415
                       3.43492                      10.03348                     101.00134
                       4.11049                      12.03823                     100.98907
                       4.78604                      14.04298                     100.97787
                       5.46152                      16.04775                     100.96839
                       6.13690                      18.05254                     100.96156
                       6.81213                      20.05737                     100.95846
                       0.12393                      -0.06569                     101.06355
                       1.45648                      -1.57780                     101.05357
                       2.85507                      -3.16503                     101.04255
                       4.25355                      -4.75235                     101.03104
                       5.65195                      -6.33973                     101.01923
                       7.05024                      -7.92720                     101.00734
                       8.44844                      -9.51474                     100.99577
                       9.84652                     -11.10237                     100.98500
                      11.24448                     -12.69011                     100.97567
                      12.64229                     -14.27795                     100.96862
                      14.03994                     -15.86593                     100.96483
        </DataArray>
      </Points>
      <PointData>
        <DataArray type="Float32" Name="TranslationalVelocity" NumberOfComponents="3" format="ascii">
                       2.71520                       0.61935                      -0.00759
                       4.79855                     -11.91843                       0.83975
                       6.64029                     -23.65297                       1.77413
                       8.31317                     -34.58732                       2.66027
                       8.78433                     -37.71288                       2.91358
                       9.85425                     -44.71855                       3.43860
                      11.38562                     -53.98721                       3.92832
                      12.99287                     -62.37093                       4.06465
                      14.71472                     -69.86752                       3.87271
                      16.50312                     -76.49156                       3.47598
                      18.24244                     -82.26461                       3.03266
                      19.80179                     -87.20308                       2.66496
                      21.08709                     -91.30658                       2.42236
                      22.05732                     -94.55802                       2.29475
                      22.71606                     -96.93026                       2.24350
                      23.09080                     -98.39124                       2.22925
                      23.20622                     -98.91341                       2.22641
                      23.07083                     -98.48318                       2.22025
                      22.67750                     -97.10148                       2.19709
                      22.00928                     -94.78391                       2.13640
                      21.05070                     -91.55312                       2.00972
                      19.80515                     -87.43218                       1.79123
                      18.30692                     -82.44082                       1.47577
                      16.61783                     -76.59016                       1.09179
                      14.81037                     -69.88525                       0.69958
                      12.94145                     -62.33419                       0.36863
                      11.03230                     -53.94808                       0.14624
                       9.06578                     -44.74119                       0.03553
                       7.63726                     -37.81818                       0.00945
                       7.00918                     -34.73619                       0.00627
                       4.82574                     -23.95573                       0.00428
                       2.49272                     -12.38560                       0.00356
                      -0.00041                      -0.00019                       0.00054
                       2.71520                       0.61935                      -0.00759
                      -9.65434                       4.44364                      -0.52089
                     -21.24139                       7.96833                      -1.05307
                     -31.96195                      11.33410                      -1.35217
                     -35.00270                      12.32747                      -1.37776
                     -41.77875                      14.66858                      -1.25960
                     -50.70018                      18.02694                      -0.75234
                     -58.72738                      21.27820                      -0.06747
                     -65.86957                      24.25405                       0.55778
                     -72.15474                      26.76398                       0.93036
                     -77.61452                      28.67019                       0.98249
                     -82.26435                      29.94886                       0.78414
                     -86.09998                      30.67871                       0.47118
                     -89.10512                      30.98866                       0.16868
                     -91.25868                      31.02043                      -0.04488
                     -92.54371                      30.89481                      -0.14948
                     -92.95257                      30.68909                      -0.17354
                     -92.48665                      30.43150                      -0.17091
                     -91.15585                      30.10464                      -0.19664
                     -88.97467                      29.65948                      -0.28842
                     -85.96093                      29.02843                      -0.45614
                     -82.13432                      28.12971                      -0.67488
                     -77.51247                      26.87684                      -0.88456
                     -72.10853                      25.19849                      -1.00357
                     -65.92696                      23.06507                      -0.96180
                     -58.95934                      20.50936                      -0.74661
                     -51.18997                      17.61515                      -0.42360
                     -42.60332                      14.47823                      -0.10995
                     -36.09950                      12.17989                       0.03586
                     -33.18657                      11.17257                       0.07202
                     -22.94006                       7.68177                       0.12310
                     -11.87489                       3.97019                       0.08111
                      -0.00041                      -0.00019                       0.00054
                       2.71520                       0.61935                      -0.00759
                      11.74435                       8.87749                      -0.54764
                      20.04205                      16.55131                      -1.13070
                      27.75640                      23.57599                      -1.49826
                      29.97462                      25.54946                      -1.54369
                      35.03289                      29.87606                      -1.45352
                      41.92669                      35.39960                      -0.94538
                      48.34005                      40.23464                      -0.22349
                      54.15631                      44.50226                       0.46491
                      59.24404                      48.34794                       0.91320
                      63.50251                      51.89146                       1.03254
                      66.89880                      55.17937                       0.86906
                      69.47238                      58.17553                       0.55186
                      71.30925                      60.78586                       0.21925
                      72.51169                      62.88654                      -0.02998
                      73.17186                      64.35415                      -0.15950
                      73.34875                      65.09456                      -0.19315
                      73.05650                      65.05747                      -0.19120
                      72.26764                      64.23853                      -0.21932
                      70.92019                      62.67525                      -0.32036
                      68.93563                      60.43391                      -0.49673
                      66.23495                      57.59285                      -0.70671
                      62.75497                      54.22345                      -0.87688
                      58.46965                      50.36977                      -0.93395
                      53.39525                      46.04078                      -0.83707
                      47.58319                      41.21304                      -0.59950
                      41.10727                      35.84100                      -0.29543
                      34.03341                      29.87956                      -0.02482
                      28.74739                      25.33988                       0.09857
                      26.39867                      23.30289                       0.13219
                      18.18878                      16.12957                       0.18883
                       9.39569                       8.36182                       0.14030
                      -0.00041                      -0.00019                       0.00054
                       0.02604                      -0.17936                       0.00165
                       0.74462                      -3.75159                       0.00041
                       1.50240                      -7.51197                       0.00032
                       2.26332                     -11.28203                       0.00085
                       3.02691                     -15.06027                       0.00157
                       3.79267                     -18.84520                       0.00221
                       4.56014                     -22.63532                       0.00270
                       5.32882                     -26.42915                       0.00319
                       6.09823                     -30.22521                       0.00401
                       6.86787                     -34.02204                       0.00581
                       7.63726                     -37.81818                       0.00945
                      -0.18008                       0.05482                       0.00165
                      -3.62333                       1.21682                       0.03760
                      -7.23577                       2.43606                       0.07348
                     -10.84671                       3.65491                       0.10464
                     -14.45635                       4.87342                       0.12858
                     -18.06492                       6.09166                       0.14318
                     -21.67264                       7.30966                       0.14679
                     -25.27974                       8.52744                       0.13824
                     -28.88643                       9.74506                       0.11688
                     -32.49295                      10.96253                       0.08263
                     -36.09950                      12.17989                       0.03586
                       0.12579                       0.11623                       0.00165
                       2.85660                       2.52088                       0.04420
                       5.72607                       5.04836                       0.08647
                       8.59836                       7.57894                       0.12374
                      11.47306                      10.11214                       0.15371
                      14.34973                      12.64748                       0.17443
                      17.22793                      15.18449                       0.18435
                      20.10725                      17.72271                       0.18232
                      22.98722                      20.26165                       0.16764
                      25.86741                      22.80087                       0.13977
                      28.74739                      25.33988                       0.09857
                       1.14644                      -0.02709                       0.00223
                       1.86908                      -3.61402                       0.11815
                       2.63053                      -7.38639                       0.30973
                       3.39475                     -11.16533                       0.55958
                       4.16137                     -14.94978                       0.85446
                       4.92995                     -18.73866                       1.18167
                       5.70001                     -22.53093                       1.52920
                       6.47103                     -26.32555                       1.88584
                       7.24246                     -30.12144                       2.24139
                       8.01373                     -33.91757                       2.58663
                       8.78433                     -37.71288                       2.91358
                       0.94033                       0.20710                       0.00223
                      -2.51676                       1.37231                      -0.18123
                      -6.13872                       2.59328                      -0.37735
                      -9.75490                       3.81248                      -0.57060
                     -13.36642                       5.03027                      -0.75458
                     -16.97441                       6.24701                      -0.92334
                     -20.58003                       7.46308                      -1.07154
                     -24.18447                       8.67884                      -1.19451
                     -27.78890                       9.89461                      -1.28842
                     -31.39456                      11.11074                      -1.35023
                     -35.00270                      12.32747                      -1.37776
                       1.24620                       0.26851                       0.00223
                       3.99078                       2.68520                      -0.18526
                       6.87432                       5.22402                      -0.38708
                       9.76009                       7.76455                      -0.58860
                      12.64753                      10.30628                      -0.78430