# vtk DataFile Version 2.0
BldPointCP.BldC
ASCII
 
DATASET POLYDATA
POINTS 9 double
  0.80260359E+001 -0.82974056E+001  0.10627902E+003
  0.19411366E+002 -0.20463134E+002  0.94509960E+002
  0.28573173E+002 -0.30195022E+002  0.82379442E+002
  0.34731213E+002 -0.36676962E+002  0.70122177E+002
  0.36674989E+002 -0.38673461E+002  0.58089336E+002
  0.34696071E+002 -0.36546146E+002  0.46075198E+002
  0.28530050E+002 -0.30058696E+002  0.33803332E+002
  0.19355417E+002 -0.20412005E+002  0.21600676E+002
  0.78841845E+001 -0.83188653E+001  0.98421501E+001
  
POINT_DATA 9
SCALARS Gamma_LL double
LOOKUP_TABLE default
  0.54575238E+002
  0.10136402E+003
  0.74760834E+002
  0.87522418E+002
  0.10176708E+003
  0.10100265E+003
  0.91829215E+002
  0.10604890E+003
  0.30616215E+002
VECTORS Vind_CP double
 -0.13347340E+000 -0.22670315E+000 -0.37753088E+000
 -0.14279878E+000  0.13499482E+000 -0.26727677E+000
 -0.19894337E+000  0.17994609E+000 -0.16434582E+000
 -0.47557164E+000  0.39551111E+000 -0.15595574E+000
 -0.69800082E+000  0.58693580E+000  0.13591150E-001
 -0.56486587E+000  0.47773599E+000  0.22422522E+000
 -0.28213226E+000  0.25762786E+000  0.25445229E+000
 -0.22576503E+000  0.19985082E+000  0.30201754E+000
 -0.81341225E-001 -0.56135692E-001  0.52315454E-001
VECTORS Vtot_CP double
 -0.15146010E+000 -0.14981016E+002  0.55624970E+000
 -0.21560003E+002 -0.34277593E+002  0.75141250E+000
 -0.39350059E+002 -0.49533051E+002 -0.36661987E+000
 -0.50758614E+002 -0.60974072E+002 -0.43611531E+000
 -0.53873197E+002 -0.65832970E+002  0.24782633E+000
 -0.50137318E+002 -0.62758237E+002  0.76075896E+000
 -0.38411704E+002 -0.51355801E+002  0.98738335E+000
 -0.20418290E+002 -0.34745041E+002  0.60849065E+000
  0.20352669E+001 -0.14348601E+002  0.10085115E-001
VECTORS Vstr_CP double
  0.17217987E+002  0.14754313E+002 -0.93378058E+000
  0.38617204E+002  0.34412588E+002 -0.10186893E+001
  0.56351115E+002  0.49712997E+002  0.20227405E+000
  0.67483043E+002  0.61369583E+002  0.28015958E+000
  0.70375196E+002  0.66419905E+002 -0.23423518E+000
  0.66772452E+002  0.63235973E+002 -0.53653374E+000
  0.55329572E+002  0.51613429E+002 -0.73293105E+000
  0.37392525E+002  0.34944892E+002 -0.30647311E+000
  0.15083392E+002  0.14292465E+002  0.42230339E-001
VECTORS Vwnd_CP double
  0.17200000E+002  0.00000000E+000  0.00000000E+000
  0.17200000E+002  0.00000000E+000  0.00000000E+000
  0.17200000E+002  0.00000000E+000  0.00000000E+000
  0.17200000E+002  0.00000000E+000  0.00000000E+000
  0.17200000E+002  0.00000000E+000  0.00000000E+000
  0.17200000E+002  0.00000000E+000  0.00000000E+000
  0.17200000E+002  0.00000000E+000  0.00000000E+000
  0.17200000E+002  0.00000000E+000  0.00000000E+000
  0.17200000E+002  0.00000000E+000  0.00000000E+000
VECTORS Tangent double
 -0.51438678E+000 -0.85755830E+000 -0.13070163E-004
 -0.72305873E+000 -0.69077249E+000  0.44093806E-002
 -0.73335260E+000 -0.67984437E+000  0.23667565E-002
 -0.73140254E+000 -0.68194548E+000 -0.82454586E-003
 -0.72599579E+000 -0.68769908E+000 -0.29668820E-003
 -0.72771149E+000 -0.68588333E+000  0.21274555E-003
 -0.72889391E+000 -0.68462654E+000  0.40261644E-003
 -0.72553906E+000 -0.68818092E+000  0.30464365E-003
 -0.72509063E+000 -0.68863937E+000 -0.44039680E-002
VECTORS Normal double
  0.45624737E+000 -0.27368248E+000  0.84672087E+000
  0.44307546E+000 -0.45886847E+000  0.77014535E+000
  0.48076346E+000 -0.51613497E+000  0.70885202E+000
  0.61470098E+000 -0.65980381E+000  0.43220555E+000
  0.68768468E+000 -0.72597766E+000 -0.67987864E-002
  0.61659760E+000 -0.65433621E+000 -0.43778023E+000
  0.48536238E+000 -0.51716007E+000 -0.70496015E+000
  0.44108540E+000 -0.46536957E+000 -0.76738181E+000
  0.35572504E+000 -0.36906327E+000 -0.85863380E+000
VECTORS Orth double
  0.72611609E+000 -0.43553606E+000 -0.53203737E+000
  0.52997189E+000 -0.55881401E+000 -0.63785320E+000
  0.48068749E+000 -0.52097632E+000 -0.70535325E+000
  0.29528466E+000 -0.31560939E+000 -0.90177474E+000
 -0.44601301E-002  0.51399182E-002 -0.99997684E+000
 -0.30040537E+000  0.31844652E+000 -0.89908199E+000
 -0.48284265E+000  0.51364575E+000 -0.70924680E+000
 -0.52823929E+000  0.55663110E+000 -0.64119035E+000
 -0.58966370E+000  0.62415392E+000 -0.51257059E+000
