<?xml version="1.0"?>
<VTKFile type="PolyData" version="0.1" byte_order="LittleEndian">
  <PolyData>
    <Piece NumberOfPoints="     10" NumberOfVerts="  0" NumberOfLines="      9"
           NumberOfStrips="  0" NumberOfPolys="      0">
      <Points>
        <DataArray type="Float32" NumberOfComponents="3" format="ascii">
                       0.06826                      -0.07263                      15.12068
                       1.67625                      -1.77130                      15.12795
                       3.28496                      -3.46929                      15.13514
                       4.89422                      -5.16676                      15.14147
                       6.50404                      -6.86370                      15.14655
                       8.11071                      -8.56369                      15.15384
                       9.72075                     -10.26038                      15.15450
                      11.33086                     -11.95699                      15.15347
                      12.94088                     -13.65365                      15.15065
                      14.55069                     -15.35048                      15.14604
        </DataArray>
      </Points>
      <PointData>
        <DataArray type="Float32" Name="TranslationalVelocity" NumberOfComponents="3" format="ascii">
                       0.12450                       0.12064                       0.00113
                       3.19275                       3.02464                       0.03796
                       6.26439                       5.93427                       0.07209
                       9.33902                       8.84858                       0.10125
                      12.41595                      11.76699                       0.12335
                      15.50242                      14.68285                       0.13608
                      18.58360                      17.60611                       0.13755
                      21.66585                      20.53066                       0.12683
                      24.74874                      23.45565                       0.10255
                      27.83180                      26.38026                       0.06340
        </DataArray>
        <DataArray type="Float32" Name="RotationalVelocity" NumberOfComponents="3" format="ascii">
                      -0.01736                      -0.00484                       1.80418
                      -0.01716                      -0.00432                       1.80669
                      -0.01635                      -0.00319                       1.80902
                      -0.01496                      -0.00152                       1.81103
                      -0.01304                       0.00065                       1.81272
                      -0.00782                       0.00631                       1.81515
                      -0.00463                       0.00969                       1.81589
                      -0.00111                       0.01338                       1.81631
                       0.00280                       0.01751                       1.81640
                       0.00692                       0.02184                       1.81618
        </DataArray>
        <DataArray type="Float32" Name="TranslationalAcceleration" NumberOfComponents="3" format="ascii">
                       0.14534                      -0.01391                       0.05744
                      -0.51595                       0.75993                      -0.44134
                      -0.93244                       1.31911                      -0.91872
                      -1.33397                       1.89483                      -1.29705
                      -1.72394                       2.48166                      -1.55632
                       2.84255                      -1.90354                      -1.77834
                       2.48640                      -1.30550                      -1.83274
                       2.13713                      -0.70441                      -1.77238
                       1.77991                      -0.09302                      -1.66646
                       1.42527                       0.52518                      -1.61432
        </DataArray>
        <DataArray type="Float32" Name="OrientationX" NumberOfComponents="3" format="ascii">
                      -0.00003                       0.00009                       1.00000
                       0.00010                      -0.00007                       1.00000
                       0.00025                      -0.00024                       1.00000
                       0.00041                      -0.00041                       1.00000
                       0.00059                      -0.00059                       1.00000
                       0.00012                       0.00022                       1.00000
                       0.00018                       0.00044                       1.00000
                       0.00029                       0.00058                       1.00000
                       0.00046                       0.00063                       1.00000
                       0.00002                       0.00003                       1.00000
        </DataArray>
        <DataArray type="Float32" Name="OrientationY" NumberOfComponents="3" format="ascii">
                      -0.72745                      -0.68616                       0.00004
                      -0.72688                      -0.68676                       0.00003
                      -0.72628                      -0.68740                       0.00002
                      -0.72567                      -0.68804                       0.00001
                      -0.72500                      -0.68875                       0.00002
                      -0.72354                      -0.69028                       0.00023
                      -0.72362                      -0.69020                       0.00043
                      -0.72383                      -0.68998                       0.00061
                      -0.72416                      -0.68964                       0.00076
                      -0.72375                      -0.69007                       0.00004
        </DataArray>
        <DataArray type="Float32" Name="OrientationZ" NumberOfComponents="3" format="ascii">
                       0.68616                      -0.72745                       0.00008
                       0.68676                      -0.72688                      -0.00012
                       0.68740                      -0.72628                      -0.00034
                       0.68804                      -0.72567                      -0.00057
                       0.68875                      -0.72500                      -0.00084
                       0.69028                      -0.72354                       0.00008
                       0.69020                      -0.72362                       0.00020
                       0.68998                      -0.72383                       0.00021
                       0.68964                      -0.72416                       0.00014
                       0.69007                      -0.72375                       0.00001
        </DataArray>
      </PointData>
      <Lines>
        <DataArray type="Int32" Name="connectivity" format="ascii">
      0      1
      1      2
      2      3
      3      4
      4      5
      5      6
      6      7
      7      8
      8      9
        </DataArray>
        <DataArray type="Int32" Name="offsets" format="ascii">
      2
      4
      6
      8
     10
     12
     14
     16
     18
        </DataArray>
      </Lines>
    </Piece>
  </PolyData>
</VTKFile>
