# vtk DataFile Version 2.0

ASCII
 
DATASET POLYDATA
POINTS 60 double
  0.22148872E-001  0.38047705E-002  0.11318210E+003
  0.11534773E+002 -0.17014449E+002  0.10092475E+003
  0.19674814E+002 -0.29032645E+002  0.88707059E+002
  0.26494837E+002 -0.39086512E+002  0.76468958E+002
  0.29896006E+002 -0.44100549E+002  0.64217486E+002
  0.29894448E+002 -0.44097093E+002  0.51969388E+002
  0.26491843E+002 -0.39077230E+002  0.39721347E+002
  0.19673583E+002 -0.29021614E+002  0.27480189E+002
  0.11531613E+002 -0.17011794E+002  0.15252352E+002
  0.13959996E-003  0.30707559E-004  0.30000914E+001
 -0.19413334E+001 -0.40452368E+001  0.11318179E+003
  0.78850488E+001 -0.19493857E+002  0.10092728E+003
  0.17109978E+002 -0.30768217E+002  0.88708292E+002
  0.24461295E+002 -0.40462752E+002  0.76469029E+002
  0.28029715E+002 -0.45367625E+002  0.64217596E+002
  0.27992443E+002 -0.45389650E+002  0.51968826E+002
  0.24338323E+002 -0.40534579E+002  0.39720625E+002
  0.16837680E+002 -0.30943207E+002  0.27480271E+002
  0.78082786E+001 -0.19539003E+002  0.15252370E+002
 -0.37245542E+001 -0.25251670E+001  0.29944099E+001
 -0.18529144E+001 -0.40108687E+001  0.11318225E+003
  0.77008177E+001 -0.19629860E+002  0.10093319E+003
  0.16721302E+002 -0.31063694E+002  0.88704638E+002
  0.23892649E+002 -0.40886588E+002  0.76463129E+002
  0.27373832E+002 -0.45860051E+002  0.64216027E+002
  0.27336862E+002 -0.45883385E+002  0.51969251E+002
  0.23769877E+002 -0.40961386E+002  0.39723779E+002
  0.16445693E+002 -0.31238020E+002  0.27482239E+002
  0.76255768E+001 -0.19675424E+002  0.15249049E+002
 -0.35976703E+001 -0.24575229E+001  0.29965721E+001
 -0.17600677E+001 -0.39747722E+001  0.11318258E+003
  0.75159444E+001 -0.19760195E+002  0.10093759E+003
  0.16327389E+002 -0.31349540E+002  0.88701158E+002
  0.23317513E+002 -0.41298088E+002  0.76458677E+002
  0.26709192E+002 -0.46335699E+002  0.64214417E+002
  0.26672146E+002 -0.46359169E+002  0.51969643E+002
  0.23194400E+002 -0.41373693E+002  0.39725982E+002
  0.16048684E+002 -0.31521926E+002  0.27483771E+002
  0.74410405E+001 -0.19805737E+002  0.15245640E+002
 -0.34694838E+001 -0.23890607E+001  0.29984250E+001
 -0.16627143E+001 -0.39368491E+001  0.11318273E+003
  0.73299478E+001 -0.19884888E+002  0.10093978E+003
  0.15929280E+002 -0.31627019E+002  0.88698628E+002
  0.22737231E+002 -0.41698422E+002  0.76456046E+002
  0.26037440E+002 -0.46796468E+002  0.64213162E+002
  0.25999937E+002 -0.46819220E+002  0.51970017E+002
  0.22613110E+002 -0.41772911E+002  0.39727250E+002
  0.15647563E+002 -0.31796033E+002  0.27484791E+002
  0.72546644E+001 -0.19929879E+002  0.15243306E+002
 -0.33400324E+001 -0.23198438E+001  0.29994654E+001
 -0.15620402E+001 -0.38971389E+001  0.11318277E+003
  0.71424549E+001 -0.20003975E+002  0.10094028E+003
  0.15528198E+002 -0.31897717E+002  0.88697826E+002
  0.22153103E+002 -0.42089584E+002  0.76455315E+002
  0.25360785E+002 -0.47246059E+002  0.64212754E+002
  0.25322804E+002 -0.47267991E+002  0.51970150E+002
  0.22027688E+002 -0.42161996E+002  0.39727588E+002
  0.15243489E+002 -0.32062085E+002  0.27485083E+002
  0.70664633E+001 -0.20047838E+002  0.15242600E+002
 -0.32092353E+001 -0.22499704E+001  0.29997379E+001
  
POLYGONS 45 225
      4      0      1     11     10
      4      1      2     12     11
      4      2      3     13     12
      4      3      4     14     13
      4      4      5     15     14
      4      5      6     16     15
      4      6      7     17     16
      4      7      8     18     17
      4      8      9     19     18
      4     10     11     21     20
      4     11     12     22     21
      4     12     13     23     22
      4     13     14     24     23
      4     14     15     25     24
      4     15     16     26     25
      4     16     17     27     26
      4     17     18     28     27
      4     18     19     29     28
      4     20     21     31     30
      4     21     22     32     31
      4     22     23     33     32
      4     23     24     34     33
      4     24     25     35     34
      4     25     26     36     35
      4     26     27     37     36
      4     27     28     38     37
      4     28     29     39     38
      4     30     31     41     40
      4     31     32     42     41
      4     32     33     43     42
      4     33     34     44     43
      4     34     35     45     44
      4     35     36     46     45
      4     36     37     47     46
      4     37     38     48     47
      4     38     39     49     48
      4     40     41     51     50
      4     41     42     52     51
      4     42     43     53     52
      4     43     44     54     53
      4     44     45     55     54
      4     45     46     56     55
      4     46     47     57     56
      4     47     48     58     57
      4     48     49     59     58
  
CELL_DATA 45
SCALARS Gamma double
LOOKUP_TABLE default
  0.55517334E+001
  0.11524444E+002
  0.84253451E+001
  0.98669053E+001
  0.11443381E+002
  0.10857547E+002
  0.10153410E+002
  0.12534465E+002
  0.33987728E+001
  0.55517334E+001
  0.11524444E+002
  0.84253451E+001
  0.98669053E+001
  0.11443381E+002
  0.10857547E+002
  0.10153410E+002
  0.12534465E+002
  0.33987728E+001
  0.10796506E+001
  0.22864924E+001
  0.17123151E+001
  0.19508177E+001
  0.22107269E+001
  0.21117534E+001
  0.20087758E+001
  0.24850141E+001
  0.67029763E+000
  0.12168383E-001
  0.26361473E-001
  0.20268502E-001
  0.22122473E-001
  0.24323726E-001
  0.23479501E-001
  0.22930704E-001
  0.28397287E-001
  0.76470951E-002
  0.00000000E+000
  0.00000000E+000
  0.00000000E+000
  0.00000000E+000
  0.00000000E+000
  0.00000000E+000
  0.00000000E+000
  0.00000000E+000
  0.00000000E+000
POINT_DATA 60
VECTORS Uconv double
  0.00000000E+000  0.00000000E+000  0.00000000E+000
  0.00000000E+000  0.00000000E+000  0.00000000E+000
  0.00000000E+000  0.00000000E+000  0.00000000E+000
  0.00000000E+000  0.00000000E+000  0.00000000E+000
  0.00000000E+000  0.00000000E+000  0.00000000E+000
  0.00000000E+000  0.00000000E+000  0.00000000E+000
  0.00000000E+000  0.00000000E+000  0.00000000E+000
  0.00000000E+000  0.00000000E+000  0.00000000E+000
  0.00000000E+000  0.00000000E+000  0.00000000E+000
  0.00000000E+000  0.00000000E+000  0.00000000E+000
  0.00000000E+000  0.00000000E+000  0.00000000E+000
  0.00000000E+000  0.00000000E+000  0.00000000E+000
  0.00000000E+000  0.00000000E+000  0.00000000E+000
  0.00000000E+000  0.00000000E+000  0.00000000E+000
  0.00000000E+000  0.00000000E+000  0.00000000E+000
  0.00000000E+000  0.00000000E+000  0.00000000E+000
  0.00000000E+000  0.00000000E+000  0.00000000E+000
  0.00000000E+000  0.00000000E+000  0.00000000E+000
  0.00000000E+000  0.00000000E+000  0.00000000E+000
  0.00000000E+000  0.00000000E+000  0.00000000E+000
  0.17196284E+002 -0.24642827E-002 -0.13139930E-001
  0.17196643E+002  0.25414590E-002 -0.13138330E-001
  0.17196684E+002  0.46246892E-002 -0.61581197E-002
  0.17194401E+002  0.79230295E-002 -0.55006762E-002
  0.17189232E+002  0.15235853E-001 -0.31550956E-002
  0.17188886E+002  0.15851676E-001  0.35666197E-002
  0.17193855E+002  0.93054410E-002  0.66399101E-002
  0.17195776E+002  0.60811790E-002  0.75870810E-002
  0.17196797E+002  0.36623804E-002  0.94513290E-002
  0.17187527E+002  0.37038564E-002 -0.25304975E-001
  0.17196203E+002 -0.24513282E-002 -0.13219155E-001
  0.17196989E+002  0.20640494E-002 -0.11327969E-001
  0.17197958E+002  0.28078577E-002 -0.37330556E-002
  0.17197406E+002  0.35957624E-002 -0.20941407E-002
  0.17195490E+002  0.63565788E-002 -0.10556957E-002
  0.17195359E+002  0.66806581E-002  0.12973803E-002
  0.17197239E+002  0.45084683E-002  0.27987733E-002
  0.17197230E+002  0.40040911E-002  0.48291426E-002
  0.17197141E+002  0.31991254E-002  0.81138192E-002
  0.17187695E+002  0.34415051E-002 -0.25402575E-001
  0.17196118E+002 -0.24385185E-002 -0.13296859E-001
  0.17197315E+002  0.15751911E-002 -0.95646456E-002
  0.17199209E+002  0.96038473E-003 -0.12966798E-002
  0.17200375E+002 -0.81856880E-003  0.13305168E-002
  0.17201606E+002 -0.27024987E-002  0.10305245E-002
  0.17201666E+002 -0.26580144E-002 -0.97443224E-003
  0.17200548E+002 -0.37738298E-003 -0.10585918E-002
  0.17198641E+002  0.18993283E-002  0.20737293E-002
  0.17197477E+002  0.27266525E-002  0.68116330E-002
  0.17187868E+002  0.31811545E-002 -0.25530704E-001
  0.17196029E+002 -0.24264158E-002 -0.13371384E-001
  0.17197621E+002  0.10799225E-002 -0.78642969E-002
  0.17200410E+002 -0.85710863E-003  0.10832419E-002
  0.17203044E+002 -0.48990606E-002  0.44837722E-002
  0.17206738E+002 -0.10562571E-001  0.28496307E-002
  0.17206948E+002 -0.10761904E-001 -0.29676514E-002
  0.17203506E+002 -0.48913249E-002 -0.46145725E-002
  0.17199981E+002 -0.16608519E-003 -0.60328540E-003
  0.17197791E+002  0.22475893E-002  0.55553092E-002
  0.17188048E+002  0.29232331E-002 -0.25694303E-001
