# vtk DataFile Version 2.0
Sgmt
ASCII
 
DATASET POLYDATA
POINTS 1620 double
  0.31622711E+000  0.69600560E-001  0.11318073E+003
 -0.19558629E+002 -0.58790870E+001  0.10128218E+003
 -0.33541276E+002 -0.10131948E+002  0.89162475E+002
 -0.44920469E+002 -0.13696336E+002  0.76751646E+002
 -0.50613966E+002 -0.15507191E+002  0.64467747E+002
 -0.50627183E+002 -0.15530016E+002  0.52219518E+002
 -0.44911655E+002 -0.13728829E+002  0.39947989E+002
 -0.33527185E+002 -0.10112475E+002  0.27519764E+002
 -0.19688594E+002 -0.58971905E+001  0.15241717E+002
  0.16091521E-003  0.30462559E-004  0.30001936E+001
 -0.39953565E+001 -0.12166693E+001  0.11310486E+003
 -0.20841815E+002 -0.16575517E+001  0.10127685E+003
 -0.34457519E+002 -0.71737232E+001  0.89161249E+002
 -0.45607603E+002 -0.11339017E+002  0.76736821E+002
 -0.51215594E+002 -0.13333140E+002  0.64459131E+002
 -0.51243280E+002 -0.13314464E+002  0.52228485E+002
 -0.45612602E+002 -0.11224797E+002  0.39951701E+002
 -0.34476051E+002 -0.68208996E+001  0.27526589E+002
 -0.20950800E+002 -0.15778359E+001  0.15245229E+002
 -0.12773463E+001  0.43148833E+001  0.30046708E+001
 -0.38787455E+001 -0.11493668E+001  0.11311420E+003
 -0.20724745E+002 -0.12704696E+001  0.10127344E+003
 -0.34431849E+002 -0.65289678E+001  0.89131771E+002
 -0.45681572E+002 -0.10482614E+002  0.76714886E+002
 -0.51343572E+002 -0.12368252E+002  0.64434520E+002
 -0.51367947E+002 -0.12347460E+002  0.52196624E+002
 -0.45686900E+002 -0.10369311E+002  0.39917805E+002
 -0.34449075E+002 -0.61838710E+001  0.27501876E+002
 -0.20820989E+002 -0.11915154E+001  0.15233385E+002
 -0.10306234E+001  0.43372922E+001  0.30040972E+001
 -0.37600864E+001 -0.10811912E+001  0.11313609E+003
 -0.20597850E+002 -0.88371160E+000  0.10127007E+003
 -0.34393464E+002 -0.58826062E+001  0.89103090E+002
 -0.45738511E+002 -0.96230277E+001  0.76694378E+002
 -0.51455333E+002 -0.11398896E+002  0.64411123E+002
 -0.51478512E+002 -0.11375944E+002  0.52164849E+002
 -0.45745532E+002 -0.95097106E+001  0.39884067E+002
 -0.34409983E+002 -0.55441483E+001  0.27478116E+002
 -0.20682389E+002 -0.80527873E+000  0.15221316E+002
 -0.78363256E+000  0.43576001E+001  0.30039215E+001
 -0.36387996E+001 -0.10122035E+001  0.11313763E+003
 -0.20459173E+002 -0.49821449E+000  0.10126921E+003
 -0.34341642E+002 -0.52351456E+001  0.89074698E+002
 -0.45782236E+002 -0.87605037E+001  0.76677112E+002
 -0.51551682E+002 -0.10425599E+002  0.64390211E+002
 -0.51570551E+002 -0.10400259E+002  0.52134871E+002
 -0.45789104E+002 -0.86464341E+001  0.39850271E+002
 -0.34357816E+002 -0.49021917E+001  0.27455808E+002
 -0.20533646E+002 -0.41898640E+000  0.15217989E+002
 -0.53528207E+000  0.43763344E+001  0.30080880E+001
 -0.35149360E+001 -0.94229912E+000  0.11311973E+003
 -0.20311198E+002 -0.11344095E+000  0.10125480E+003
 -0.34275406E+002 -0.45871741E+001  0.89045260E+002
 -0.45812321E+002 -0.78953309E+001  0.76663082E+002
 -0.51634072E+002 -0.94488164E+001  0.64372064E+002
 -0.51649012E+002 -0.94212194E+001  0.52104959E+002
 -0.45818510E+002 -0.77798775E+001  0.39815885E+002
 -0.34291518E+002 -0.42584940E+001  0.27436375E+002
 -0.20375833E+002 -0.33283110E-001  0.15214279E+002
 -0.28680452E+000  0.43934056E+001  0.30122689E+001
 -0.33886074E+001 -0.87160886E+000  0.11312094E+003
 -0.20152281E+002  0.26980939E+000  0.10124984E+003
 -0.34198551E+002 -0.39397859E+001  0.89019666E+002
 -0.45824425E+002 -0.70281208E+001  0.76650163E+002
 -0.51696711E+002 -0.84690881E+001  0.64355094E+002
 -0.51708964E+002 -0.84392543E+001  0.52076163E+002
 -0.45829812E+002 -0.69107433E+001  0.39783033E+002
 -0.34216769E+002 -0.36146949E+001  0.27413662E+002
 -0.20208527E+002  0.35117348E+000  0.15209695E+002
 -0.38287037E-001  0.44086077E+001  0.30205664E+001
 -0.32594240E+001 -0.80042101E+000  0.11312172E+003
 -0.19985050E+002  0.65263860E+000  0.10123356E+003
 -0.34105280E+002 -0.32928196E+001  0.88991998E+002
 -0.45815259E+002 -0.61595918E+001  0.76636558E+002
 -0.51737363E+002 -0.74869277E+001  0.64339795E+002
 -0.51747268E+002 -0.74549405E+001  0.52048805E+002
 -0.45819523E+002 -0.60398145E+001  0.39754112E+002
 -0.34121385E+002 -0.29699012E+001  0.27400312E+002
 -0.20032148E+002  0.73468003E+000  0.15208034E+002
  0.21025403E+000  0.44221970E+001  0.30292941E+001
 -0.31272720E+001 -0.72827765E+000  0.11312214E+003
 -0.19807459E+002  0.10334251E+001  0.10121717E+003
 -0.33993705E+002 -0.26472200E+001  0.88960758E+002
 -0.45784288E+002 -0.52918015E+001  0.76624718E+002
 -0.51746031E+002 -0.65036025E+001  0.64323440E+002
 -0.51760093E+002 -0.64697357E+001  0.52024496E+002
 -0.45784330E+002 -0.51680633E+001  0.39730710E+002
 -0.34008604E+002 -0.23251755E+001  0.27392059E+002
 -0.19846856E+002  0.11170958E+001  0.15206716E+002
  0.45888541E+000  0.44338963E+001  0.30352027E+001
 -0.29916992E+001 -0.65497343E+000  0.11311404E+003
 -0.19618831E+002  0.14121066E+001  0.10119879E+003
 -0.33864731E+002 -0.20031769E+001  0.88927248E+002
 -0.45728141E+002 -0.44240315E+001  0.76610106E+002
 -0.51723098E+002 -0.55206225E+001  0.64307094E+002
 -0.51731669E+002 -0.54841494E+001  0.52004596E+002
 -0.45732031E+002 -0.42976611E+001  0.39704507E+002
 -0.33874519E+002 -0.16808305E+001  0.27393737E+002
 -0.19652228E+002  0.14979350E+001  0.15207576E+002
  0.70779878E+000  0.44440718E+001  0.30395172E+001
 -0.28528844E+001 -0.57966122E+000  0.11311373E+003
 -0.19422573E+002  0.17890725E+001  0.10115734E+003
 -0.33717884E+002 -0.13612822E+001  0.88891592E+002
 -0.45646372E+002 -0.35580750E+001  0.76592598E+002
 -0.51654071E+002 -0.45392663E+001  0.64288806E+002
 -0.51661970E+002 -0.45007982E+001  0.51990544E+002
 -0.45647768E+002 -0.34282979E+001  0.39690652E+002
 -0.33721921E+002 -0.10383793E+001  0.27400618E+002
 -0.19452527E+002  0.18767656E+001  0.15204549E+002
  0.95716717E+000  0.44529111E+001  0.30441822E+001
 -0.27102733E+001 -0.50319125E+000  0.11311591E+003
 -0.19235197E+002  0.21658220E+001  0.10113066E+003
 -0.33549551E+002 -0.72176462E+000  0.88849647E+002
 -0.45535594E+002 -0.26942383E+001  0.76570228E+002
 -0.51549586E+002 -0.35618640E+001  0.64271515E+002
 -0.51556343E+002 -0.35215567E+001  0.51979737E+002
 -0.45535189E+002 -0.25610571E+001  0.39685161E+002
 -0.33553046E+002 -0.39775470E+000  0.27413393E+002
 -0.19251251E+002  0.22542807E+001  0.15192287E+002
  0.12071119E+001  0.44603909E+001  0.30486179E+001
 -0.25635778E+001 -0.42561407E+000  0.11311701E+003
 -0.19020541E+002  0.25398107E+001  0.10106907E+003
 -0.33365705E+002 -0.84920308E-001  0.88807894E+002
 -0.45397124E+002 -0.18332975E+001  0.76544517E+002
 -0.51407338E+002 -0.25893387E+001  0.64253086E+002
 -0.51416417E+002 -0.25474197E+001  0.51974597E+002
 -0.45389747E+002 -0.16968181E+001  0.39692636E+002
 -0.33368324E+002  0.24057254E+000  0.27429780E+002
 -0.19030497E+002  0.26312137E+001  0.15201566E+002
  0.14576886E+001  0.44665553E+001  0.30526814E+001
 -0.24125710E+001 -0.34699326E+000  0.11311834E+003
 -0.18796346E+002  0.29124369E+001  0.10102260E+003
 -0.33167996E+002  0.54952733E+000  0.88768924E+002
 -0.45228291E+002 -0.97575956E+000  0.76511276E+002
 -0.51241287E+002 -0.16217786E+001  0.64235216E+002
 -0.51245486E+002 -0.15785210E+001  0.51974252E+002
 -0.45221459E+002 -0.83618948E+000  0.39705711E+002
 -0.33169575E+002  0.87658406E+000  0.27449148E+002
 -0.18802374E+002  0.30063491E+001  0.15210924E+002
  0.17091784E+001  0.44722224E+001  0.30553174E+001
 -0.22570616E+001 -0.26747490E+000  0.11311946E+003
 -0.18565497E+002  0.32846639E+001  0.10097629E+003
 -0.32957863E+002  0.11816571E+001  0.88733071E+002
 -0.45040557E+002 -0.12137608E+000  0.76479638E+002
 -0.51051997E+002 -0.65795129E+000  0.64219087E+002
 -0.51054924E+002 -0.61380679E+000  0.51976870E+002
 -0.45034816E+002  0.20872594E-001  0.39721694E+002
 -0.32958431E+002  0.15102846E+001  0.27469555E+002
 -0.18567861E+002  0.33802765E+001  0.15217989E+002
  0.19608327E+001  0.44764603E+001  0.30585858E+001
 -0.20967840E+001 -0.18730053E+000  0.11311964E+003
 -0.18325421E+002  0.36553960E+001  0.10093965E+003
 -0.32735815E+002  0.18115156E+001  0.88702489E+002
 -0.44833211E+002  0.72971400E+000  0.76450711E+002
 -0.50850813E+002  0.30312692E+000  0.64206868E+002
 -0.50852686E+002  0.34764542E+000  0.51980901E+002
 -0.44829769E+002  0.87427943E+000  0.39740182E+002
 -0.32736284E+002  0.21416007E+001  0.27489109E+002
 -0.18325737E+002  0.37518653E+001  0.15220655E+002
  0.22126077E+001  0.44794098E+001  0.30622194E+001
 -0.19314351E+001 -0.10665413E+000  0.11311873E+003
 -0.18080610E+002  0.40248254E+001  0.10089299E+003
 -0.32506630E+002  0.24396564E+001  0.88680951E+002
 -0.44613865E+002  0.15780376E+001  0.76428663E+002
 -0.50632828E+002  0.12611907E+001  0.64196934E+002
 -0.50634480E+002  0.13057033E+001  0.51987383E+002
 -0.44612319E+002  0.17241587E+001  0.39757169E+002
 -0.32520874E+002  0.27728653E+001  0.27489168E+002
 -0.18077565E+002  0.41219049E+001  0.15232723E+002
  0.24643289E+001  0.44813199E+001  0.30645301E+001
 -0.17619481E+001 -0.25955981E-001  0.11311727E+003
 -0.17828355E+002  0.43935963E+001  0.10086376E+003
 -0.32286080E+002  0.30695452E+001  0.88683663E+002
 -0.44385191E+002  0.24247624E+001  0.76412998E+002
 -0.50410435E+002  0.22180304E+001  0.64191512E+002
 -0.50410915E+002  0.22623184E+001  0.51992178E+002
 -0.44383471E+002  0.25714036E+001  0.39770931E+002
 -0.32287345E+002  0.34013107E+001  0.27494326E+002
 -0.17822605E+002  0.44902835E+001  0.15239372E+002
  0.27158994E+001  0.44818463E+001  0.30671414E+001
  0.31622711E+000  0.69600560E-001  0.11318073E+003
  0.48966659E+001  0.20013169E+002  0.10076703E+003
  0.82061060E+001  0.34266415E+002  0.88708254E+002
  0.11007609E+002  0.46169138E+002  0.76562773E+002
  0.12361572E+002  0.51870720E+002  0.64213630E+002
  0.12365666E+002  0.51761661E+002  0.51948296E+002
  0.11004236E+002  0.45974313E+002  0.39643740E+002
  0.81860950E+001  0.34174090E+002  0.27394451E+002
  0.47903975E+001  0.19986140E+002  0.15262928E+002
  0.16091521E-003  0.30462559E-004  0.30001936E+001
[...]
CELL_DATA 2988
SCALARS Gamma double
LOOKUP_TABLE default
 -0.43611406E+001
  0.43611406E+001
 -0.15822917E+003
  0.15386803E+003
 -0.14354461E+003
 -0.14684563E+002
 -0.11008348E+003
 -0.33461123E+002
 -0.90603113E+002
 -0.19480372E+002
 -0.82493351E+002
 -0.81097619E+001
 -0.98867509E+002
  0.16374158E+002
 -0.13870013E+003
  0.39832623E+002
 -0.60763481E+002
 -0.77936651E+002
 -0.60763481E+002
  0.00000000E+000
  0.43611406E+001
  0.00000000E+000
  0.15386803E+003
  0.00000000E+000
 -0.14684563E+002
  0.00000000E+000
 -0.33461123E+002
  0.00000000E+000
 -0.19480372E+002
  0.00000000E+000
 -0.81097619E+001
  0.00000000E+000
  0.16374158E+002
  0.00000000E+000
  0.39832623E+002
  0.00000000E+000
 -0.77936651E+002
 -0.60763481E+002
 -0.11485175E+000
  0.44759924E+001
 -0.83517156E+000
  0.15458835E+003
 -0.38570430E+000
 -0.15134031E+002
 -0.20659429E+001
 -0.31780885E+002
 -0.44499391E+001
 -0.17096376E+002
 -0.48851336E+001
 -0.76745674E+001
 -0.43079570E+001
  0.15796982E+002
 -0.24364484E+001
  0.37961114E+002
 -0.21065739E+001
 -0.78266526E+002
 -0.62870055E+002
 -0.12186431E+000
  0.45978567E+001
 -0.73697808E+000
  0.15520346E+003
 -0.18697577E+000
 -0.15684033E+002
 -0.22518348E+001
 -0.29716026E+002
 -0.49215414E+001
 -0.14426669E+002
 -0.51651845E+001
 -0.74309243E+001
 -0.42935679E+001
  0.14925365E+002
 -0.23938117E+001
  0.36061358E+002
 -0.21508727E+001
 -0.78509465E+002
 -0.65020927E+002
 -0.13068741E+000
  0.47285441E+001
 -0.65029999E+000
  0.15572308E+003
 -0.74135204E-001
 -0.16260198E+002
 -0.23141768E+001
 -0.27475984E+002
 -0.50345155E+001
 -0.11706331E+002
 -0.51552368E+001
 -0.73102029E+001
 -0.42361870E+001
  0.14006315E+002
 -0.22305834E+001
  0.34055755E+002
 -0.21797801E+001
 -0.78560268E+002
 -0.67200707E+002
 -0.13745155E+000
  0.48659957E+001
 -0.55263701E+000
  0.15613826E+003
  0.70155900E-001
 -0.16882991E+002
 -0.23672779E+001
 -0.25038550E+002
 -0.51899116E+001
 -0.88836971E+001
 -0.51982565E+001
 -0.73018580E+001
 -0.39157700E+001
  0.12723829E+002
 -0.21037404E+001
  0.32243725E+002
 -0.22148052E+001
 -0.78449203E+002
 -0.69415513E+002
 -0.14351985E+000
  0.50095155E+001
 -0.44288301E+000
  0.15643763E+003
  0.19745549E+000
 -0.17523329E+002
 -0.24051006E+001
 -0.22435994E+002
 -0.49591754E+001
 -0.63296223E+001
 -0.52127925E+001
 -0.70482410E+001
 -0.32331920E+001
  0.10744228E+002
 -0.20389841E+001
  0.31049517E+002
 -0.22450642E+001
 -0.78243123E+002
 -0.71660577E+002
 -0.13997529E+000
  0.51494908E+001
 -0.92830764E-001
  0.15639048E+003
  0.52297140E+000
 -0.18139131E+002
 -0.23503403E+001
 -0.19562683E+002
 -0.39115262E+001
 -0.47684364E+001
 -0.50048418E+001
 -0.59549254E+001
 -0.29758320E+001
  0.87152186E+001
 -0.17509083E+001
  0.29824593E+002
 -0.21431196E+001
 -0.77850912E+002
 -0.73803696E+002
  0.14837073E-001
  0.51346537E+001
  0.48806848E+001
  0.15152463E+003
  0.49326920E+001
 -0.18191138E+002
  0.12062066E+001
 -0.15836197E+002
 -0.13701543E+000
 -0.34252144E+001
 -0.79400306E+000
 -0.52979378E+001
  0.88270414E+000
  0.70385114E+001
  0.29489499E+001
  0.27758347E+002
  0.14956181E+000
 -0.75051524E+002
 -0.73654135E+002
  0.47592712E+000
  0.46587266E+001
  0.18303795E+002
  0.13369677E+003
  0.16748446E+002
 -0.16635789E+002
  0.12128025E+002
 -0.11215776E+002
  0.10640676E+002
 -0.19378658E+001
  0.10099609E+002
 -0.47568714E+001
  0.11731022E+002
  0.54070988E+001
  0.15972660E+002
  0.23516710E+002
  0.67350539E+001
 -0.65813918E+002
 -0.66919081E+002
  0.83211125E+000
  0.38266154E+001
  0.27867914E+002
  0.10666096E+003
  0.24918373E+002
 -0.13686248E+002
  0.20471167E+002
 -0.67685699E+001
  0.18877183E+002
 -0.34388132E+000
  0.18315604E+002
 -0.41952929E+001
  0.19841319E+002
  0.38813838E+001
  0.25575396E+002
  0.17782634E+002
  0.12482756E+002
 -0.52721278E+002
 -0.54436325E+002
  0.99235881E+000
  0.28342566E+001
  0.31099255E+002
  0.76554066E+002
  0.27415886E+002
 -0.10002878E+002
  0.23975277E+002
 -0.33279609E+001
  0.23038709E+002
  0.59268608E+000
  0.22064967E+002
 -0.32215504E+001
  0.23517145E+002
  0.24292057E+001
  0.29201645E+002
  0.12098133E+002
  0.14721714E+002
 -0.38241348E+002
 -0.39714610E+002
  0.10427003E+001
  0.17915563E+001
  0.30769127E+002
  0.46827639E+002
  0.26983230E+002
 -0.62169816E+001
  0.24776825E+002
 -0.11215561E+001
  0.24504431E+002
  0.86508056E+000
  0.23208485E+002
 -0.19256050E+001
  0.24544431E+002
  0.10932602E+001
  0.29638113E+002
  0.70044515E+001
  0.14999923E+002
 -0.23603158E+002
 -0.24714688E+002
  0.97299534E+000
  0.81856091E+000
  0.27077488E+002
  0.20723147E+002
  0.23657597E+002
 -0.27970910E+001
  0.22649332E+002
 -0.11329133E+000
  0.22929610E+002
  0.58480337E+000
  0.21802107E+002
 -0.79810264E+000
  0.22590109E+002
  0.30525857E+000
  0.26662817E+002
  0.29317436E+001
  0.13579584E+002
 -0.10519925E+002
 -0.11135103E+002
  0.64872544E+000
  0.16983547E+000
  0.17225887E+002
  0.41459856E+001
  0.14985761E+002
 -0.55696483E+000
  0.14823631E+002
  0.48838483E-001
  0.15253043E+002
  0.15539132E+000
  0.14596251E+002
 -0.14131106E+000
  0.14877618E+002
  0.23892066E-001
  0.17257262E+002
  0.55209979E+000
  0.88586096E+001
 -0.21212729E+001
 -0.22764939E+001
  0.16779964E+000
  0.20358333E-002
  0.42656912E+001
  0.48093971E-001
  0.37150864E+001
 -0.63599538E-002
  0.37625785E+001
  0.13463489E-002
  0.39157448E+001
  0.22250323E-002
  0.37758405E+001
 -0.14067937E-002
  0.37998844E+001
 -0.15175484E-003
  0.43459621E+001
  0.60219938E-002
  0.22494345E+001
 -0.24745317E-001
 -0.27059359E-001
  0.20358333E-002
  0.00000000E+000
  0.00000000E+000
  0.50129804E-001
 -0.00000000E+000
  0.00000000E+000
  0.43769850E-001
 -0.00000000E+000
  0.00000000E+000
  0.45116199E-001
 -0.00000000E+000
  0.00000000E+000
  0.47341231E-001
 -0.00000000E+000
  0.00000000E+000
  0.45934438E-001
 -0.00000000E+000
  0.00000000E+000
  0.45782683E-001
 -0.00000000E+000
  0.00000000E+000
  0.51804677E-001
 -0.00000000E+000
  0.00000000E+000
  0.27059359E-001
 -0.00000000E+000
  0.00000000E+000
 -0.00000000E+000
  0.10803232E+003
 -0.10803232E+003
  0.49368156E+002
  0.58664163E+002
  0.19173718E+002
  0.30194438E+002
  0.19184389E+002
 -0.10670450E-001
  0.38855487E+002
 -0.19671098E+002
  0.33590084E+002
  0.52654027E+001
  0.23805856E+002
  0.97842282E+001
  0.33415121E+002
 -0.96092657E+001
  0.40088579E+002
 -0.66734573E+001
  0.40088579E+002
  0.00000000E+000
 -0.10803232E+003
  0.00000000E+000
  0.58664163E+002
  0.00000000E+000
  0.30194438E+002
  0.00000000E+000
 -0.10670450E-001
  0.00000000E+000
 -0.19671098E+002
  0.00000000E+000
  0.52654027E+001
  0.00000000E+000
  0.97842282E+001
  0.00000000E+000
 -0.96092657E+001
  0.00000000E+000
 -0.66734573E+001
  0.40088579E+002
  0.16738695E+001
 -0.10970619E+003
  0.10559739E+001
  0.59282058E+002
 -0.68864955E-001
  0.31319277E+002
  0.20128938E+001
 -0.20924292E+001
  0.29845200E+001
 -0.20642724E+002
  0.25227422E+001
  0.57271805E+001
  0.15689689E+001
  0.10738002E+002
  0.23070838E+001
 -0.10347381E+002
  0.26511064E+001
 -0.70174799E+001
  0.42739685E+002
  0.14215351E+001
 -0.11112772E+003
  0.97397706E+000
  0.59729616E+002
  0.74948997E-001
  0.32218305E+002
  0.22549003E+001
 -0.42723805E+001
  0.30791959E+001
 -0.21467020E+002
  0.25802173E+001
  0.62261591E+001
  0.16498703E+001
  0.11668348E+002
  0.23827144E+001
 -0.11080225E+002
  0.26618184E+001
 -0.72965839E+001
  0.45401503E+002
  0.13129184E+001
 -0.11244064E+003
  0.10064808E+001
  0.60036054E+002
  0.37671376E+000
  0.32848072E+002
  0.24961762E+001
 -0.63918429E+001
  0.30924531E+001
 -0.22063297E+002
  0.26212969E+001
  0.66973153E+001
  0.18018780E+001
  0.12487767E+002
  0.25279887E+001
 -0.11806335E+002
  0.26814057E+001
 -0.74500009E+001
  0.48082909E+002
  0.12841358E+001
 -0.11372478E+003
  0.10218390E+001
  0.60298351E+002
  0.66857243E+000
  0.33201339E+002
  0.27242815E+001
 -0.84475520E+001
  0.31058736E+001
 -0.22444889E+002
  0.26295671E+001
  0.71736217E+001
  0.19304997E+001
  0.13186835E+002
  0.26616870E+001
 -0.12537523E+002
  0.26972408E+001
 -0.74855547E+001
  0.50780150E+002
  0.11519653E+001
 -0.11487674E+003
  0.10830052E+001
  0.60367311E+002
  0.10138338E+001
  0.33270510E+002
  0.29061155E+001
 -0.10339834E+002
  0.30168516E+001
 -0.22555625E+002
  0.25732902E+001
  0.76171830E+001
  0.20742879E+001
  0.13685837E+002
  0.28322246E+001
 -0.13295459E+002
  0.27283583E+001
 -0.73816885E+001
  0.53508508E+002
  0.62716214E+000
 -0.11550391E+003
  0.10896381E+001
  0.59904835E+002
  0.13834750E+001
  0.32976673E+002
  0.30181911E+001
 -0.11974550E+002
  0.27747242E+001
 -0.22312158E+002
  0.24218867E+001
  0.79700206E+001
  0.21885717E+001
  0.13919152E+002
  0.29364170E+001
 -0.14043304E+002
  0.26655115E+001
 -0.71107830E+001
  0.56174020E+002
 -0.28959937E+001
 -0.11260791E+003
 -0.48009835E+000
  0.57488939E+002
  0.10877219E+001
  0.31408853E+002
  0.19778335E+001
 -0.12864662E+002
  0.71827404E+000
 -0.21052598E+002
  0.73400206E+000
  0.79542925E+001
  0.12293416E+001
  0.13423813E+002
  0.15715189E+001
 -0.14385482E+002
  0.92866735E+000
 -0.64679314E+001
  0.57102687E+002
 -0.12602314E+002
 -0.10000560E+003
 -0.52290479E+001
  0.50115674E+002
 -0.75883078E+000
  0.26938636E+002
 -0.15209807E+001
 -0.12102512E+002
 -0.48403114E+001
 -0.17733268E+002
 -0.39698689E+001
  0.70838501E+001
 -0.20334040E+001
  0.11487348E+002
 -0.30433522E+001
 -0.13375534E+002
 -0.43170140E+001
 -0.51942696E+001
  0.52785673E+002
 -0.19765346E+002
 -0.80240252E+002
 -0.88862138E+001
  0.39236541E+002
 -0.26267096E+001
  0.20679132E+002
 -0.48235155E+001
 -0.99057057E+001
 -0.93638934E+001
 -0.13192890E+002
 -0.78432373E+001
  0.55631940E+001
 -0.49671768E+001
  0.86112870E+001
 -0.71011572E+001
 -0.11241553E+002
 -0.86556926E+001
 -0.36397342E+001
  0.44129981E+002
 -0.22240400E+002
 -0.57999852E+002
 -0.10510455E+002
  0.27506596E+002
 -0.39498849E+001
  0.14118562E+002
 -0.68456066E+001
 -0.70099840E+001
 -0.11448451E+002
 -0.85900453E+001
 -0.96926403E+001
  0.38073832E+001
 -0.66721349E+001
  0.55907816E+001
 -0.94491412E+001
 -0.84645468E+001
 -0.10904937E+002
 -0.21839384E+001
  0.33225043E+002
 -0.22238158E+002
 -0.35761694E+002
 -0.11071798E+002
  0.16340236E+002
 -0.50772428E+001
  0.81240071E+001
 -0.80530541E+001
 -0.40341727E+001
 -0.12045193E+002
 -0.45979064E+001
 -0.10367287E+002
  0.21294770E+001
 -0.77188607E+001
  0.29423555E+001
 -0.10764720E+002
 -0.54186876E+001
 -0.11897044E+002
 -0.10516144E+001
  0.21328000E+002
 -0.19801747E+002
 -0.15959946E+002
 -0.10431548E+002
  0.69700364E+001
 -0.56400549E+001
  0.33325139E+001
 -0.81041948E+001
 -0.15700328E+001
 -0.11011162E+002
 -0.16909396E+001
 -0.96864267E+001
  0.80474206E+000
 -0.77734533E+001
  0.10293821E+001
 -0.10713530E+002
 -0.24786105E+001
 -0.11444404E+002
 -0.32074043E+000
  0.98835952E+001
 -0.12734296E+002
 -0.32256505E+001
 -0.70919756E+001
  0.13277161E+001
 -0.43707978E+001
  0.61133605E+000
 -0.56838027E+001
 -0.25702784E+000
 -0.71110926E+001
 -0.26364967E+000
 -0.64318326E+001
  0.12548201E+000
 -0.55503317E+001
  0.14788120E+000
 -0.75239556E+001
 -0.50498659E+000
 -0.78048641E+001
 -0.39831881E-001
  0.20787311E+001
 -0.31878192E+001
 -0.37831218E-001
 -0.18745597E+001
  0.14456477E-001
 -0.12697514E+001
  0.65277625E-002
 -0.15248765E+001
 -0.19027177E-002
 -0.17864326E+001
 -0.20935815E-002
 -0.16619089E+001
  0.95830135E-003
 -0.15148379E+001
  0.81028700E-003
 -0.20138719E+001
 -0.59526030E-002
 -0.20534908E+001
 -0.21301071E-003
  0.25240302E-001
 -0.37831218E-001
 -0.00000000E+000
 -0.00000000E+000
 -0.23374740E-001
 -0.00000000E+000
 -0.00000000E+000
 -0.16846978E-001
 -0.00000000E+000
 -0.00000000E+000
 -0.18749696E-001
 -0.00000000E+000
 -0.00000000E+000
 -0.20843277E-001
 -0.00000000E+000
 -0.00000000E+000
 -0.19884976E-001
 -0.00000000E+000
 -0.00000000E+000
 -0.19074689E-001
 -0.00000000E+000
 -0.00000000E+000
 -0.25027292E-001
 -0.00000000E+000
 -0.00000000E+000
 -0.25240302E-001
 -0.00000000E+000
 -0.00000000E+000
  0.00000000E+000
  0.58804484E+002
 -0.58804484E+002
  0.10679948E+003
 -0.47994992E+002
  0.82254837E+002
  0.24544639E+002
  0.92570860E+002
 -0.10316024E+002
  0.10345399E+003
 -0.10883129E+002
  0.10455118E+003
 -0.10971881E+001
  0.97897462E+002
  0.66537164E+001
  0.11123491E+003
 -0.13337445E+002
  0.32379709E+002
  0.78855198E+002
  0.32379709E+002
  0.00000000E+000
 -0.58804484E+002
  0.00000000E+000
 -0.47994992E+002
  0.00000000E+000
  0.24544639E+002
  0.00000000E+000
 -0.10316024E+002
  0.00000000E+000
 -0.10883129E+002
  0.00000000E+000
 -0.10971881E+001
  0.00000000E+000
  0.66537164E+001
  0.00000000E+000
 -0.13337445E+002
  0.00000000E+000
  0.78855198E+002
  0.32379709E+002
 -0.13898846E+001
 -0.57414600E+002
 -0.17889428E+001
 -0.47595934E+002
 -0.25843091E+001
  0.25340006E+002
 -0.17456412E+001
 -0.11154692E+002
 -0.51995052E+000
 -0.12108820E+002
 -0.11027743E+001
 -0.51436433E+000
 -0.20289421E+001
  0.75798842E+001
 -0.17202699E+001
 -0.13646117E+002
 -0.54725414E+000
  0.77682182E+002
  0.31832455E+002
 -0.14186744E+001
 -0.55995925E+002
 -0.18271392E+001
 -0.47187469E+002
 -0.25183082E+001
  0.26031175E+002
 -0.16729732E+001
 -0.12000027E+002
 -0.52770097E+000
 -0.13254092E+002
 -0.11788652E+001
  0.13679992E+000
 -0.20471715E+001
  0.84481906E+001
 -0.17569523E+001
 -0.13936337E+002
 -0.60881164E+000
  0.76534041E+002
  0.31223643E+002
 -0.14206875E+001
 -0.54575238E+002
 -0.18193734E+001
 -0.46788783E+002
 -0.23913858E+001
  0.26603187E+002
 -0.16298284E+001
 -0.12761584E+002
 -0.63926223E+000
 -0.14244659E+002
 -0.12668876E+001
  0.76442524E+000
 -0.19921328E+001
  0.91734358E+001
 -0.17087849E+001
 -0.14219684E+002
 -0.60742859E+000
  0.75432685E+002
  0.30616215E+002
 -0.14506000E+001
 -0.53124638E+002
 -0.18184543E+001
 -0.46420929E+002
 -0.22574240E+001
  0.27042157E+002
 -0.15816356E+001
 -0.13437372E+002
 -0.74850386E+000
 -0.15077790E+002
 -0.15677516E+001
  0.15836730E+001
 -0.19600528E+001
  0.95657370E+001
 -0.16559344E+001
 -0.14523803E+002
 -0.60607043E+000
  0.74382821E+002
  0.30010144E+002
 -0.14771720E+001
 -0.51647466E+002
 -0.18073547E+001
 -0.46090746E+002
 -0.20989389E+001
  0.27333741E+002
 -0.15466766E+001
 -0.13989635E+002
 -0.88625950E+000
 -0.15738207E+002
 -0.17799275E+001
  0.24773410E+001
 -0.19260392E+001
  0.97118486E+001
 -0.15893747E+001
 -0.14860467E+002
 -0.60316145E+000
  0.73396608E+002
  0.29406983E+002
 -0.15138546E+001
 -0.50133611E+002
 -0.19359266E+001
 -0.45668674E+002
 -0.20075771E+001
  0.27405391E+002
 -0.16190547E+001
 -0.14378157E+002
 -0.11653775E+001
 -0.16191885E+002
 -0.20317160E+001
  0.33436796E+001
 -0.20053873E+001
  0.96855198E+001
 -0.16678422E+001
 -0.15198012E+002
 -0.64603767E+000
  0.72374803E+002
  0.28760945E+002
 -0.30068415E+001
 -0.47126770E+002
 -0.47207272E+001
 -0.43954788E+002
 -0.37978442E+001
  0.26482508E+002
 -0.40482626E+001
 -0.14127739E+002
 -0.43459059E+001
 -0.15894241E+002
 -0.49767692E+001
  0.39745430E+001
 -0.44853409E+001
  0.91940915E+001
 -0.45649217E+001
 -0.15118432E+002
 -0.14880132E+001
  0.69297894E+002
  0.27272932E+002
 -0.68188349E+001
 -0.40307935E+002
 -0.12197779E+002
 -0.38575845E+002
 -0.88416361E+001
  0.23126366E+002
 -0.10544737E+002
 -0.12424638E+002
 -0.12610496E+002
 -0.13828482E+002
 -0.12536655E+002
  0.39007012E+001
 -0.11121388E+002
  0.77788247E+001
 -0.12527415E+002
 -0.13712404E+002
 -0.37148458E+001
  0.60485325E+002
  0.23558086E+002
 -0.91277294E+001
 -0.31180205E+002
 -0.17022088E+002
 -0.30681486E+002
 -0.12027814E+002
  0.18132092E+002
 -0.14779134E+002
 -0.96733181E+001
 -0.17931352E+002
 -0.10676264E+002
 -0.17347197E+002
  0.33165460E+001
 -0.15364989E+002
  0.57966173E+001
 -0.17791989E+002
 -0.11285405E+002
 -0.51326887E+001
  0.47826025E+002
  0.18425397E+002
 -0.94285308E+001
 -0.21751674E+002
 -0.18113224E+002
 -0.21996792E+002
 -0.12637587E+002
  0.12656455E+002
 -0.15700499E+002
 -0.66104064E+001
 -0.19124492E+002
 -0.72522709E+001
 -0.18240085E+002
  0.24321392E+001
 -0.16208555E+002
  0.37650876E+001
 -0.19134557E+002
 -0.83594026E+001
 -0.54301888E+001
  0.34121657E+002
  0.12995209E+002
 -0.88111280E+001
 -0.12940546E+002
 -0.17364621E+002
 -0.13443300E+002
 -0.12134860E+002
  0.74266936E+001
 -0.15020160E+002
 -0.37251056E+001
 -0.18202912E+002
 -0.40695191E+001
 -0.17222675E+002
  0.14519017E+001
 -0.15451635E+002
  0.19940483E+001
 -0.18533877E+002
 -0.52771613E+001
 -0.51786026E+001
  0.20766383E+002
  0.78166061E+001
 -0.73888130E+001
 -0.55517334E+001
 -0.14859403E+002
 -0.59727103E+001
 -0.10531808E+002
  0.30990986E+001
 -0.12815353E+002
 -0.14415602E+001
 -0.15308397E+002
 -0.15764755E+001
 -0.14442329E+002
  0.58583389E+000
 -0.13152417E+002
  0.70413672E+000
 -0.16048524E+002
 -0.23810543E+001
 -0.44178333E+001
  0.91356917E+001
  0.33987728E+001
 -0.44720828E+001
 -0.10796506E+001
 -0.92379513E+001
 -0.12068418E+001
 -0.67130300E+001
  0.57417728E+000
 -0.79160876E+001
 -0.23850265E+000
 -0.92326540E+001
 -0.25990912E+000
 -0.87457936E+001
  0.98973503E-001
 -0.81446344E+001
  0.10297754E+000
 -0.10049450E+002
 -0.47623825E+000
 -0.27284752E+001
  0.18147164E+001
  0.67029763E+000
 -0.10674822E+001
 -0.12168383E-001
 -0.22601309E+001
 -0.14193089E-001
 -0.16920466E+001
  0.60929708E-002
 -0.19286953E+001
 -0.18539712E-002
 -0.21864031E+001
 -0.22012529E-002
 -0.20882739E+001
  0.84422521E-003
 -0.19858451E+001
  0.54879671E-003
 -0.24566168E+001
 -0.54665826E-002
 -0.66265053E+000
  0.20750192E-001
  0.76470951E-002
 -0.12168383E-001
 -0.00000000E+000
 -0.00000000E+000
 -0.26361473E-001
 -0.00000000E+000
 -0.00000000E+000
 -0.20268502E-001
 -0.00000000E+000
 -0.00000000E+000
 -0.22122473E-001
 -0.00000000E+000
 -0.00000000E+000
 -0.24323726E-001
 -0.00000000E+000
 -0.00000000E+000
 -0.23479501E-001
 -0.00000000E+000
 -0.00000000E+000
 -0.22930704E-001
 -0.00000000E+000
 -0.00000000E+000
 -0.28397287E-001
 -0.00000000E+000
 -0.00000000E+000
 -0.76470951E-002
 -0.00000000E+000
 -0.00000000E+000
  0.00000000E+000
  0.60224942E+001
 -0.60224942E+001
 -0.23726757E-001
  0.60462210E+001
  0.12654742E+001
 -0.12892010E+001
  0.67029464E+000
  0.59517956E+000
 -0.69039563E+000
  0.13606903E+001
 -0.14992500E+001
  0.80885439E+000
 -0.24966400E+001
  0.99738996E+000
 -0.34195593E+001
  0.92291930E+000
 -0.51641284E+001
  0.17445691E+001
 -0.51641284E+001
  0.00000000E+000
 -0.60224942E+001
  0.00000000E+000
  0.60462210E+001
  0.00000000E+000
 -0.12892010E+001
  0.00000000E+000
  0.59517956E+000
  0.00000000E+000
  0.13606903E+001
  0.00000000E+000
  0.80885439E+000
  0.00000000E+000
  0.99738996E+000
  0.00000000E+000
  0.92291930E+000
  0.00000000E+000
  0.17445691E+001
 -0.51641284E+001
 -0.88092936E+000
 -0.51415649E+001
  0.52420281E+000
  0.46410888E+001
 -0.66577347E-001
 -0.69842080E+000
  0.47790517E-001
  0.48081170E+000
  0.75754758E-001
  0.13327260E+001
  0.11189545E+000
  0.77271370E+000
  0.16670981E+000
  0.94257560E+000
  0.21373319E+000
  0.87589592E+000
  0.27192319E+000
  0.16863791E+001
 -0.48922052E+001
 -0.88156226E+000
 -0.42600026E+001
  0.54392347E+000
  0.32156031E+001
 -0.86136876E-001
 -0.68360456E-001
  0.39634772E-001
  0.35504005E+000
  0.64610922E-001
  0.13077499E+001
  0.10029379E+000
  0.73703083E+000
  0.15422811E+000
  0.88864127E+000
  0.20411081E+000
  0.82601322E+000
  0.26305709E+000
  0.16274328E+001
 -0.46291481E+001
 -0.83864278E+000
 -0.34213598E+001
  0.55353453E+000
  0.18234258E+001
 -0.95175572E-001
  0.58034965E+000
  0.31375630E-001
  0.22848885E+000
  0.58199136E-001
  0.12809264E+001
  0.97632057E-001
  0.69759791E+000
  0.15742265E+000
  0.82885068E+000
  0.21426839E+000
  0.76916748E+000
  0.28616973E+000
  0.15555315E+001
 -0.43429784E+001
 -0.66033936E+000
 -0.27610205E+001
  0.53374550E+000
  0.62934091E+000
 -0.81103740E-001
  0.11951989E+001
  0.21675721E-001
  0.12570938E+000
  0.49886267E-001
  0.12527158E+001
  0.87868862E-001
  0.65961531E+000
  0.14875498E+000
  0.76796456E+000
  0.20935904E+000
  0.70856343E+000