# vtk DataFile Version 2.0

ASCII
 
DATASET POLYDATA
POINTS 120 double
  0.13891378E+000  0.27499812E-001  0.11318127E+003
 -0.20166750E+002 -0.36986159E+001  0.10109884E+003
 -0.34456093E+002 -0.63486527E+001  0.88892019E+002
 -0.46284309E+002 -0.85809503E+001  0.76568590E+002
 -0.52219740E+002 -0.97111118E+001  0.64313886E+002
 -0.52227463E+002 -0.97219229E+001  0.52070906E+002
 -0.46292896E+002 -0.86044456E+001  0.39818224E+002
 -0.34458755E+002 -0.63514973E+001  0.27486582E+002
 -0.20215178E+002 -0.37081414E+001  0.15240185E+002
  0.18902291E-003  0.47931219E-004  0.30001700E+001
 -0.42871577E+001 -0.78409552E+000  0.11314656E+003
 -0.20975654E+002  0.63885209E+000  0.10109831E+003
 -0.35034329E+002 -0.33062473E+001  0.88895262E+002
 -0.46725375E+002 -0.61654220E+001  0.76565078E+002
 -0.52612196E+002 -0.74897390E+001  0.64311255E+002
 -0.52627056E+002 -0.74572712E+001  0.52072758E+002
 -0.46741941E+002 -0.60432209E+001  0.39816205E+002
 -0.35059864E+002 -0.29790317E+001  0.27488993E+002
 -0.21013217E+002  0.72053011E+000  0.15241650E+002
 -0.80618479E+000  0.44272094E+001  0.30018650E+001
 -0.41546416E+001 -0.71184806E+000  0.11314794E+003
 -0.20802594E+002  0.10224486E+001  0.10109104E+003
 -0.34927748E+002 -0.26588523E+001  0.88869342E+002
 -0.46694597E+002 -0.52970903E+001  0.76551722E+002
 -0.52620990E+002 -0.65074499E+001  0.64295465E+002
 -0.52635185E+002 -0.64726745E+001  0.52048848E+002
 -0.46711148E+002 -0.51718201E+001  0.39790173E+002
 -0.34951620E+002 -0.23332996E+001  0.27476107E+002
 -0.20833058E+002  0.11051273E+001  0.15236524E+002
 -0.55712680E+000  0.44397738E+001  0.30059931E+001
 -0.40188695E+001 -0.63842555E+000  0.11314942E+003
 -0.20619490E+002  0.14044743E+001  0.10107951E+003
 -0.34805857E+002 -0.20125050E+001  0.88843060E+002
 -0.46644481E+002 -0.44283401E+001  0.76539314E+002
 -0.52605122E+002 -0.55246190E+001  0.64281347E+002
 -0.52616979E+002 -0.54878195E+001  0.52027728E+002
 -0.46658216E+002 -0.43001308E+001  0.39767889E+002
 -0.34827895E+002 -0.16877235E+001  0.27467191E+002
 -0.20643525E+002  0.14884161E+001  0.15233408E+002
 -0.30774741E+000  0.44507445E+001  0.30084551E+001
 -0.38796479E+001 -0.56303346E+000  0.11315062E+003
 -0.20426226E+002  0.17846799E+001  0.10106299E+003
 -0.34667793E+002 -0.13678072E+001  0.88815806E+002
 -0.46569654E+002 -0.35604247E+001  0.76525236E+002
 -0.52558278E+002 -0.45425855E+001  0.64267076E+002
 -0.52568094E+002 -0.45039126E+001  0.52010476E+002
 -0.46580155E+002 -0.34292332E+001  0.39751398E+002
 -0.34687273E+002 -0.10432570E+001  0.27463354E+002
 -0.20448908E+002  0.18695871E+001  0.15227201E+002
 -0.57860538E-001  0.44603124E+001  0.30108199E+001
 -0.37365863E+001 -0.48649627E+000  0.11315234E+003
 -0.20235976E+002  0.21629853E+001  0.10105735E+003
 -0.34514352E+002 -0.72491703E+000  0.88788748E+002
 -0.46470835E+002 -0.26940211E+001  0.76509720E+002
 -0.52480361E+002 -0.35624547E+001  0.64253317E+002
 -0.52488222E+002 -0.35221141E+001  0.51996836E+002
 -0.46478224E+002 -0.25599155E+001  0.39740291E+002
 -0.34530908E+002 -0.40005981E+000  0.27463509E+002
 -0.20248476E+002  0.22494464E+001  0.15218996E+002
  0.19263956E+000  0.44686081E+001  0.30129382E+001
 -0.35894402E+001 -0.40883300E+000  0.11315450E+003
 -0.20024063E+002  0.25409749E+001  0.10103094E+003
 -0.34345788E+002 -0.84154138E-001  0.88762354E+002
 -0.46347525E+002 -0.18299788E+001  0.76492739E+002
 -0.52370890E+002 -0.25855143E+001  0.64239806E+002
 -0.52376904E+002 -0.25437590E+001  0.51987365E+002
 -0.46352244E+002 -0.16931287E+001  0.39734702E+002
 -0.34359248E+002  0.24139359E+000  0.27467316E+002
 -0.20032106E+002  0.26283338E+001  0.15221439E+002
  0.44380863E+000  0.44757294E+001  0.30146320E+001
 -0.34379585E+001 -0.33012410E+000  0.11315692E+003
 -0.19803843E+002  0.29174483E+001  0.10100509E+003
 -0.34163309E+002  0.55449722E+000  0.88738126E+002
 -0.46201747E+002 -0.96871725E+000  0.76475717E+002
 -0.52232514E+002 -0.16125370E+001  0.64227195E+002
 -0.52236646E+002 -0.15696736E+001  0.51981728E+002
 -0.46204243E+002 -0.82939400E+000  0.39733672E+002
 -0.34173466E+002  0.88088277E+000  0.27473640E+002
 -0.19807883E+002  0.30055681E+001  0.15223491E+002
  0.69594602E+000  0.44819268E+001  0.30152869E+001
 -0.32819467E+001 -0.25051693E+000  0.11315913E+003
 -0.19574752E+002  0.32922166E+001  0.10098236E+003
 -0.33967760E+002  0.11909606E+001  0.88717223E+002
 -0.46040607E+002 -0.11031364E+000  0.76462437E+002
 -0.52071882E+002 -0.64335899E+000  0.64216413E+002
 -0.52074187E+002 -0.59977759E+000  0.51979232E+002
 -0.46040904E+002  0.31074982E-001  0.39733861E+002
 -0.33974844E+002  0.15182403E+001  0.27480987E+002
 -0.19576334E+002  0.33810915E+001  0.15225859E+002
  0.94830075E+000  0.44867088E+001  0.30162530E+001
 -0.31211305E+001 -0.17026329E+000  0.11316044E+003
 -0.19337677E+002  0.36656002E+001  0.10096385E+003
 -0.33759399E+002  0.18250767E+001  0.88700454E+002
 -0.45856034E+002  0.74477442E+000  0.76449649E+002
 -0.51902253E+002  0.32247646E+000  0.64211079E+002
 -0.51902481E+002  0.36626551E+000  0.51976670E+002
 -0.45855920E+002  0.88792509E+000  0.39738377E+002
 -0.33764708E+002  0.21532895E+001  0.27488648E+002
 -0.19337630E+002  0.37543040E+001  0.15228925E+002
  0.12008480E+001  0.44900576E+001  0.30172976E+001
 -0.29552029E+001 -0.89549406E-001  0.11316069E+003
 -0.19093749E+002  0.40369593E+001  0.10093989E+003
 -0.33542754E+002  0.24571634E+001  0.88691682E+002
 -0.45655043E+002  0.15964416E+001  0.76440538E+002
 -0.51705879E+002  0.12842773E+001  0.64206144E+002
 -0.51704976E+002  0.13279771E+001  0.51978450E+002
 -0.45654853E+002  0.17408024E+001  0.39743959E+002
 -0.33560205E+002  0.27875446E+001  0.27477004E+002
 -0.19092464E+002  0.41262477E+001  0.15235369E+002
  0.14533857E+001  0.44921017E+001  0.30180303E+001
 -0.27850989E+001 -0.86031871E-002  0.11316032E+003
 -0.18843468E+002  0.44073971E+001  0.10092501E+003
 -0.33327338E+002  0.30891483E+001  0.88699388E+002
 -0.45440003E+002  0.24456783E+001  0.76434958E+002
 -0.51495718E+002  0.22432627E+001  0.64203924E+002
 -0.51493696E+002  0.22868031E+001  0.51980171E+002
 -0.45438170E+002  0.25903939E+001  0.39748854E+002
 -0.33331352E+002  0.34185963E+001  0.27477893E+002
 -0.18840196E+002  0.44961155E+001  0.15241339E+002
  0.17058195E+001  0.44926829E+001  0.30190450E+001
  
POLYGONS 99 495
      4      0      1     11     10
      4      1      2     12     11
      4      2      3     13     12
      4      3      4     14     13
      4      4      5     15     14
      4      5      6     16     15
      4      6      7     17     16
      4      7      8     18     17
      4      8      9     19     18
      4     10     11     21     20
      4     11     12     22     21
      4     12     13     23     22
      4     13     14     24     23
      4     14     15     25     24
      4     15     16     26     25
      4     16     17     27     26
      4     17     18     28     27
      4     18     19     29     28
      4     20     21     31     30
      4     21     22     32     31
      4     22     23     33     32
      4     23     24     34     33
      4     24     25     35     34
      4     25     26     36     35
      4     26     27     37     36
      4     27     28     38     37
      4     28     29     39     38
      4     30     31     41     40
      4     31     32     42     41
      4     32     33     43     42
      4     33     34     44     43
      4     34     35     45     44
      4     35     36     46     45
      4     36     37     47     46
      4     37     38     48     47
      4     38     39     49     48
      4     40     41     51     50
      4     41     42     52     51
      4     42     43     53     52
      4     43     44     54     53
      4     44     45     55     54
      4     45     46     56     55
      4     46     47     57     56
      4     47     48     58     57
      4     48     49     59     58
      4     50     51     61     60
      4     51     52     62     61
      4     52     53     63     62
      4     53     54     64     63
      4     54     55     65     64
      4     55     56     66     65
      4     56     57     67     66
      4     57     58     68     67
      4     58     59     69     68
      4     60     61     71     70
      4     61     62     72     71
      4     62     63     73     72
      4     63     64     74     73
      4     64     65     75     74
      4     65     66     76     75
      4     66     67     77     76
      4     67     68     78     77
      4     68     69     79     78
      4     70     71     81     80
      4     71     72     82     81
      4     72     73     83     82
      4     73     74     84     83
      4     74     75     85     84
      4     75     76     86     85
      4     76     77     87     86
      4     77     78     88     87
      4     78     79     89     88
      4     80     81     91     90
      4     81     82     92     91
      4     82     83     93     92
      4     83     84     94     93
      4     84     85     95     94
      4     85     86     96     95
      4     86     87     97     96
      4     87     88     98     97
      4     88     89     99     98
      4     90     91    101    100
      4     91     92    102    101
      4     92     93    103    102
      4     93     94    104    103
      4     94     95    105    104
      4     95     96    106    105
      4     96     97    107    106
      4     97     98    108    107
      4     98     99    109    108
      4    100    101    111    110
      4    101    102    112    111
      4    102    103    113    112
      4    103    104    114    113
      4    104    105    115    114
      4    105    106    116    115
      4    106    107    117    116
      4    107    108    118    117
      4    108    109    119    118
  
CELL_DATA 99
SCALARS Gamma double
LOOKUP_TABLE default
 -0.51494908E+001
 -0.16153997E+003
 -0.14340084E+003
 -0.12383816E+003
 -0.11906972E+003
 -0.11311480E+003
 -0.12183001E+003
 -0.15165461E+003
 -0.73803696E+002
 -0.51494908E+001
 -0.16153997E+003
 -0.14340084E+003
 -0.12383816E+003
 -0.11906972E+003
 -0.11311480E+003
 -0.12183001E+003
 -0.15165461E+003
 -0.73803696E+002
 -0.51346537E+001
 -0.15665929E+003
 -0.13846815E+003
 -0.12263195E+003
 -0.11920674E+003
 -0.11390880E+003
 -0.12094731E+003
 -0.14870566E+003
 -0.73654135E+002
 -0.46587266E+001
 -0.13835549E+003
 -0.12171970E+003
 -0.11050393E+003
 -0.10856606E+003
 -0.10380919E+003
 -0.10921629E+003
 -0.13273300E+003
 -0.66919081E+002
 -0.38266154E+001
 -0.11048758E+003
 -0.96801330E+002
 -0.90032760E+002
 -0.89688879E+002
 -0.85493586E+002
 -0.89374969E+002
 -0.10715760E+003
 -0.54436325E+002
 -0.28342566E+001
 -0.79388323E+002
 -0.69385444E+002
 -0.66057483E+002
 -0.66650169E+002
 -0.63428619E+002
 -0.65857825E+002
 -0.77955958E+002
 -0.39714610E+002
 -0.17915563E+001
 -0.48619196E+002
 -0.42402214E+002
 -0.41280658E+002
 -0.42145739E+002
 -0.40220134E+002
 -0.41313394E+002
 -0.48317845E+002
 -0.24714688E+002
 -0.81856091E+000
 -0.21541708E+002
 -0.18744617E+002
 -0.18631326E+002
 -0.19216129E+002
 -0.18418026E+002
 -0.18723285E+002
 -0.21655029E+002
 -0.11135103E+002
 -0.16983547E+000
 -0.43158211E+001
 -0.37588562E+001
 -0.38076947E+001
 -0.39630860E+001
 -0.38217750E+001
 -0.38456670E+001
 -0.43977668E+001
 -0.22764939E+001
 -0.20358333E-002
 -0.50129804E-001
 -0.43769850E-001
 -0.45116199E-001
 -0.47341231E-001
 -0.45934438E-001
 -0.45782683E-001
 -0.51804677E-001
 -0.27059359E-001
 -0.00000000E+000
 -0.00000000E+000
 -0.00000000E+000
 -0.00000000E+000
 -0.00000000E+000
 -0.00000000E+000
 -0.00000000E+000
 -0.00000000E+000
 -0.00000000E+000
POINT_DATA 120
VECTORS Uconv double
  0.00000000E+000  0.00000000E+000  0.00000000E+000
  0.00000000E+000  0.00000000E+000  0.00000000E+000
  0.00000000E+000  0.00000000E+000  0.00000000E+000
  0.00000000E+000  0.00000000E+000  0.00000000E+000
  0.00000000E+000  0.00000000E+000  0.00000000E+000
  0.00000000E+000  0.00000000E+000  0.00000000E+000
  0.00000000E+000  0.00000000E+000  0.00000000E+000
  0.00000000E+000  0.00000000E+000  0.00000000E+000
  0.00000000E+000  0.00000000E+000  0.00000000E+000
  0.00000000E+000  0.00000000E+000  0.00000000E+000
  0.00000000E+000  0.00000000E+000  0.00000000E+000
  0.00000000E+000  0.00000000E+000  0.00000000E+000
  0.00000000E+000  0.00000000E+000  0.00000000E+000
  0.00000000E+000  0.00000000E+000  0.00000000E+000
  0.00000000E+000  0.00000000E+000  0.00000000E+000
  0.00000000E+000  0.00000000E+000  0.00000000E+000
  0.00000000E+000  0.00000000E+000  0.00000000E+000
  0.00000000E+000  0.00000000E+000  0.00000000E+000
  0.00000000E+000  0.00000000E+000  0.00000000E+000
  0.00000000E+000  0.00000000E+000  0.00000000E+000
  0.17128483E+002 -0.27757123E+000 -0.49007400E+000
  0.16682002E+002  0.15181319E+000  0.19753884E+001
  0.16084977E+002  0.16314443E+000  0.10604444E+001
  0.15865697E+002  0.69780233E-001  0.78521676E+000
  0.15174604E+002  0.67624362E-001  0.31771233E+000
  0.14998072E+002  0.79515192E-001 -0.37652435E+000
  0.15662112E+002  0.80866828E-001 -0.85632274E+000
  0.16175390E+002  0.12817729E+000 -0.99332266E+000
  0.16572768E+002  0.18128025E+000 -0.48381025E+000
  0.16935859E+002 -0.12137952E+000  0.45112557E+000
  0.17121951E+002 -0.27706960E+000 -0.50236038E+000
  0.16757075E+002  0.10151670E+000  0.18260762E+001
  0.16233125E+002  0.13061063E+000  0.91193354E+000
  0.16058735E+002  0.56983826E-001  0.66566501E+000
  0.15375082E+002  0.70374585E-001  0.26681620E+000
  0.15180828E+002  0.88063734E-001 -0.34213079E+000
  0.15839128E+002  0.77227929E-001 -0.75146434E+000
  0.16310440E+002  0.10653696E+000 -0.84760955E+000
  0.16663952E+002  0.14125516E+000 -0.39268197E+000
  0.16925110E+002 -0.13662284E+000  0.46481382E+000
  0.17115192E+002 -0.27680270E+000 -0.51588379E+000
  0.16827200E+002  0.45765240E-001  0.16376129E+001
  0.16402003E+002  0.88246844E-001  0.74223257E+000
  0.16308899E+002  0.31720122E-001  0.50972130E+000
  0.15731538E+002  0.55030705E-001  0.19149248E+000
  0.15531180E+002  0.77678667E-001 -0.27660671E+000
  0.16090744E+002  0.59176074E-001 -0.60257266E+000
  0.16466309E+002  0.75001490E-001 -0.69013806E+000
  0.16309140E+002  0.73386419E-001 -0.83104358E+000
  0.16913546E+002 -0.14998747E+000  0.47825302E+000
  0.17108103E+002 -0.27655340E+000 -0.52983465E+000
  0.16441285E+002 -0.21518142E-001  0.19678862E+001
  0.16585721E+002  0.37528864E-001  0.55669008E+000
  0.16590793E+002 -0.50764389E-002  0.33040716E+000
  0.16208745E+002  0.16005137E-001  0.99790315E-001
  0.16022821E+002  0.41316393E-001 -0.18269371E+000
  0.16396604E+002  0.25922592E-001 -0.41968505E+000
  0.16636266E+002  0.35002059E-001 -0.51767900E+000
  0.16411857E+002  0.55538448E-001 -0.72533588E+000
  0.16901135E+002 -0.16168553E+000  0.49212792E+000
  0.17100651E+002 -0.27631924E+000 -0.54422126E+000
  0.16518627E+002 -0.38639732E-001  0.13957382E+001
  0.16777737E+002 -0.19895869E-001  0.36181224E+000
  0.16874912E+002 -0.50740681E-001  0.14382421E+000
  0.16742976E+002 -0.46832355E-001  0.46166819E-002
  0.16597319E+002 -0.23853777E-001 -0.69053230E-001
  0.16728286E+002 -0.22000494E-001 -0.21838678E+000
  0.16814695E+002 -0.12353902E-001 -0.33563664E+000
  0.16506542E+002  0.29623053E-001 -0.56796006E+000
  0.16887832E+002 -0.17169239E+000  0.50605109E+000
  0.17092806E+002 -0.27610500E+000 -0.55905466E+000
  0.16591189E+002 -0.64968846E-001  0.10795104E+001
  0.16971704E+002 -0.81470179E-001  0.16357830E+000
  0.17135515E+002 -0.10009633E+000 -0.34946480E-001
  0.17256888E+002 -0.12480330E+000 -0.80217632E-001
  0.17180494E+002 -0.10952845E+000  0.49292039E-001
  0.17052551E+002 -0.78212983E-001 -0.15696320E-001
  0.16995998E+002 -0.65167495E-001 -0.14945515E+000
  0.16593777E+002  0.60369704E-002 -0.52764412E+000
  0.16873582E+002 -0.17998274E+000  0.51993694E+000
  0.17084543E+002 -0.27593358E+000 -0.57435186E+000
  0.16655268E+002 -0.92019623E-001  0.74991634E+000
  0.17161781E+002 -0.14474723E+000 -0.32225713E-001
  0.16881374E+002 -0.13036932E+000  0.35206555E-001
  0.17678990E+002 -0.20199928E+000 -0.14400360E+000
  0.17691943E+002 -0.20009272E+000  0.15746886E+000
  0.16929591E+002 -0.12509151E+000 -0.28155208E-001
  0.17179621E+002 -0.12248369E+000  0.15451526E-001
  0.16676957E+002 -0.18372845E-001 -0.47488750E+000
  0.16858406E+002 -0.18671404E+000  0.53370440E+000
  0.17075837E+002 -0.27584019E+000 -0.59014225E+000
  0.16710644E+002 -0.11039102E+000  0.45536073E+000
  0.17342925E+002 -0.20764609E+000 -0.22038671E+000
  0.17137356E+002 -0.16876957E+000 -0.13873265E+000
  0.17054697E+002 -0.22845926E+000  0.64478591E-001
  0.17212291E+002 -0.24892736E+000  0.10317009E-001
  0.17239078E+002 -0.17522428E+000  0.16728488E+000
  0.17349947E+002 -0.17922021E+000  0.19803552E+000
  0.16753711E+002 -0.42768460E-001 -0.41744521E+000
  0.16842347E+002 -0.20002274E+000  0.57444565E+000
  0.17066654E+002 -0.27582540E+000 -0.60644477E+000
  0.16711605E+002 -0.12801134E+000 -0.53038757E+000
  0.17510871E+002 -0.26600460E+000 -0.39665285E+000
  0.17340000E+002 -0.20410068E+000 -0.27358517E+000
  0.17394417E+002 -0.26651838E+000  0.45155586E-002
  0.17625982E+002 -0.30341569E+000  0.11076638E+000
  0.17480659E+002 -0.22104632E+000  0.32114047E+000
  0.16890185E+002 -0.16667855E+000 -0.34451594E+000
  0.16818469E+002 -0.61747774E-001  0.34831577E-001
  0.16825203E+002 -0.20166568E+000  0.58370508E+000
  0.17056751E+002 -0.27534531E+000 -0.62431096E+000
  0.16756763E+002 -0.13949658E+000 -0.78147648E+000
  0.17662392E+002 -0.31300819E+000 -0.55824567E+000
  0.17492846E+002 -0.23181984E+000 -0.38153972E+000
  0.17591063E+002 -0.28772427E+000 -0.33295120E-001
  0.17873388E+002 -0.33773513E+000  0.17320359E+000
  0.17653298E+002 -0.25646718E+000  0.43632886E+000
  0.17108863E+002 -0.22424595E+000 -0.11354469E+000
  0.16884141E+002 -0.86334861E-001  0.55023149E-001
  0.16807081E+002 -0.20214902E+000  0.59350381E+000
