<?xml version="1.0"?>
<VTKFile type="PolyData" version="0.1" byte_order="LittleEndian">
  <PolyData>
    <Piece NumberOfPoints="    165" NumberOfVerts="  0" NumberOfLines="      0"
           NumberOfStrips="  0" NumberOfPolys="      0">
      <Points>
        <DataArray type="Float32" NumberOfComponents="3" format="ascii">
                       0.09128                       0.01724                     113.18144
                      -6.81657                      -0.99038                     109.54398
                     -13.24947                      -1.92979                     105.90482
                     -19.20568                      -2.80162                     102.26120
                     -20.89965                      -3.05008                     101.16743
                     -24.68336                      -3.60603                      98.61097
                     -29.67610                      -4.34129                      94.94562
                     -34.18382                      -5.00717                      91.26743
                     -38.20898                      -5.60380                      87.58168
                     -41.75539                      -6.13135                      83.89404
                     -44.82651                      -6.58989                      80.20831
                     -47.42528                      -6.97940                      76.52659
                     -49.55285                      -7.29960                      72.84876
                     -51.20910                      -7.55006                      69.17377
                     -52.39402                      -7.73025                      65.50065
                     -53.10644                      -7.83953                      61.82819
                     -53.34440                      -7.87730                      58.15569
                     -53.10728                      -7.84324                      54.48310
                     -52.39558                      -7.73730                      50.81044
                     -51.21147                      -7.55978                      47.13698
                     -49.55674                      -7.31117                      43.46128
                     -47.43202                      -6.99186                      39.78187
                     -44.83728                      -6.60222                      36.09751
                     -41.77005                      -6.14251                      32.40895
                     -38.22603                      -5.61285                      28.71966
                     -34.20175                      -5.01364                      25.03378
                     -29.69488                      -4.34548                      21.35547
                     -24.70624                      -3.60925                      17.68529
                     -20.93012                      -3.05397                      15.11795
                     -19.24081                      -2.80620                      14.01721
                     -13.30175                      -1.93754                      10.34633
                      -6.88834                      -1.00253                       6.67346
                       0.00019                       0.00005                       3.00016
                       0.09128                       0.01724                     113.18144
                       2.64842                       6.48468                     109.49220
                       5.02613                      12.50121                     105.79517
                       7.22952                      18.07239                     102.10326
                       7.85729                      19.65835                     100.99911
                       9.26489                      23.21210                      98.43752
                      11.13349                      27.92543                      94.80163
                      12.82968                      32.19824                      91.17078
                      14.34851                      36.01819                      87.52821
                      15.68635                      39.37741                      83.86706
                      16.84164                      42.27401                      80.18951
                      17.81466                      44.71089                      76.50226
                      18.60692                      46.69360                      72.81233
                      19.22025                      48.22792                      69.12466
                      19.65627                      49.31852                      65.44152
                      19.91635                      49.96898                      61.76305
                      20.00154                      50.18176                      58.08773
                      19.91221                      49.95746                      54.41320
                      19.64812                      49.29511                      50.73708
                      19.20848                      48.19236                      47.05792
                      18.59232                      46.64658                      43.37533
                      17.79845                      44.65471                      39.69034
                      16.82525                      42.21262                      36.00611
                      15.67122                      39.31657                      32.32721
                      14.33564                      35.96466                      28.65784
                      12.81881                      32.15763                      25.00007
                      11.12256                      27.90013                      21.35038
                       9.24954                      23.19903                      17.69998
                       7.83441                      19.64746                      15.13892
                       7.20181                      18.05984                      14.03926
                       4.97878                      12.48156                      10.36765
                       2.57909                       6.46262                       6.68612
                       0.00019                       0.00005                       3.00016
                       0.09128                       0.01724                     113.18144
                       4.38401                      -5.45651                     109.49532
                       8.37630                     -10.54930                     105.80138
                      12.07411                     -15.26452                     102.11135
                      13.12700                     -16.60645                     101.00718
                      15.48600                     -19.61210                      98.44340
                      18.61457                     -23.59645                      94.80156
                      21.45251                     -27.20768                      91.16540
                      23.99319                     -30.43674                      87.52052
                      26.23185                     -33.27751                      83.86040
                      28.16656                     -35.72805                      80.18604
                      29.79763                     -37.78981                      76.50233
                      31.12695                     -39.46648                      72.81507
                      32.15708                     -40.76265                      69.12890
                      32.89034                     -41.68258                      65.44638
                      33.32879                     -42.23005                      61.76808
                      33.47396                     -42.40775                      58.09280
                      33.32624                     -42.21661                      54.41829
                      32.88504                     -41.65587                      50.74228
                      32.14871                     -40.72318                      47.06350
                      31.11542                     -39.41561                      43.38206
                      29.78323                     -37.73008                      39.69955
                      28.15004                     -35.66334                      36.01912
                      26.21462                     -33.21341                      32.34420
                      23.97702                     -30.38013                      28.67693
                      21.43850                     -27.16500                      25.01741
                      18.60175                     -23.57148                      21.36191
                      15.46977                     -19.60332                      17.70440
                      13.10262                     -16.60388                      15.14029
                      12.04408                     -15.26240                      14.04033
                       8.32424                     -10.54778                      10.36949
                       4.31034                      -5.46063                       6.68860
                       0.00019                       0.00005                       3.00016
                      -0.09896                      -0.01423                      15.12059
                      -2.09320                      -0.30411                      15.12083
                      -4.18635                      -0.60877                      15.12147
                      -6.27944                      -0.91379                      15.12220
                      -8.37248                      -1.21911                      15.12280
                     -10.46548                      -1.52467                      15.12307
                     -12.55844                      -1.83041                      15.12290
                     -14.65138                      -2.13627                      15.12223
                     -16.74430                      -2.44219                      15.12106
                     -18.83721                      -2.74811                      15.11956
                     -20.93012                      -3.05397                      15.11795
                       0.03705                       0.09302                      15.12059
                       0.78343                       1.96489                      15.12550
                       1.56687                       3.92966                      15.13047
                       2.35031                       5.89441                      15.13497
                       3.13377                       7.85916                      15.13875
                       3.91723                       9.82390                      15.14164
                       4.70069                      11.78863                      15.14348
                       5.48414                      13.75336                      15.14420
                       6.26758                      15.71807                      15.14374
                       7.05101                      17.68277                      15.14201
                       7.83441                      19.64746                      15.13892
                       0.06192                      -0.07839                      15.12059
                       1.30991                      -1.66058                      15.12552
                       2.61996                      -3.32118                      15.13050
                       3.93013                      -4.98168                      15.13501
                       5.24038                      -6.64211                      15.13882
                       6.55071                      -8.30247                      15.14173
                       7.86109                      -9.96279                      15.14364
                       9.17149                     -11.62308                      15.14446
                      10.48190                     -13.28334                      15.14418
                      11.79228                     -14.94360                      15.14278
                      13.10262                     -16.60388                      15.14029
                      -0.06962                      -0.00910                     101.06346
                      -2.06373                      -0.29942                     101.06710
                      -4.15675                      -0.60444                     101.07354
                      -6.24972                      -0.90972                     101.08221
                      -8.34265                      -1.21521                     101.09264
                     -10.43554                      -1.52087                     101.10445
                     -12.52839                      -1.82665                     101.11721
                     -14.62123                      -2.13251                     101.13046
                     -16.71404                      -2.43840                     101.14372
                     -18.80685                      -2.74427                     101.15630
                     -20.89965                      -3.05008                     101.16743
                       0.06639                       0.09814                     101.06346
                       0.81233                       1.97050                     101.05758
                       1.59526                       3.93578                     101.05101
                       2.37815                       5.90107                     101.04398
                       3.16101                       7.86637                     101.03651
                       3.94385                       9.83168                     101.02872
                       4.72664                      11.79699                     101.02087
                       5.50940                      13.76231                     101.01333
                       6.29210                      15.72765                     101.00663
                       7.07474                      17.69299                     101.00156
                       7.85729                      19.65835                     100.99911
                       0.09127                      -0.07327                     101.06346
                       1.33962                      -1.65552                     101.05864
                       2.64979                      -3.31641                     101.05318
                       3.95981                      -4.97741                     101.04726
                       5.26972                      -6.63849                     101.04086
                       6.57951                      -8.29965                     101.03409
                       7.88921                      -9.96088                     101.02718
                       9.19880                     -11.62218                     101.02046
                      10.50830                     -13.28354                     101.01441
                      11.81770                     -14.94496                     101.00971
                      13.12700                     -16.60645                     101.00718
        </DataArray>
      </Points>
      <PointData>
        <DataArray type="Float32" Name="TranslationalVelocity" NumberOfComponents="3" format="ascii">
                       2.19365                       0.45724                      -0.01021
                       3.62196                     -12.14907                       0.75896
                       4.87847                     -23.92609                       1.56834
                       6.03081                     -34.88050                       2.29803
                       6.35783                     -38.00775                       2.50002
                       7.11967                     -45.01158                       2.89156
                       8.26852                     -54.27563                       3.18148
                       9.52285                     -62.66284                       3.15959
                      10.87438                     -70.17773                       2.89637
                      12.24713                     -76.83190                       2.52407
                      13.53264                     -82.63586                       2.17117
                      14.63392                     -87.59387                       1.91520
                      15.50108                     -91.69881                       1.76839
                      16.12897                     -94.93478                       1.70387
                      16.53837                     -97.28276                       1.68526
                      16.76353                     -98.72144                       1.68291
                      16.83239                     -99.23209                       1.68237
                      16.75027                     -98.80552                       1.67971
                      16.50136                     -97.44219                       1.66936
                      16.05219                     -95.15336                       1.63347
                      15.37063                     -91.95480                       1.54080
                      14.44641                     -87.86209                       1.35943
                      13.30324                     -82.88930                       1.07672
                      12.00626                     -77.04405                       0.72264
                      10.64205                     -70.32951                       0.37188
                       9.27513                     -62.75330                       0.10718
                       7.92277                     -54.32756                      -0.02258
                       6.54943                     -45.06887                      -0.03527
                       5.54164                     -38.10374                      -0.01391
                       5.09216                     -35.00198                      -0.00628
                       3.51553                     -24.14654                       0.00832
                       1.81735                     -12.48705                       0.00648
                       0.00020                       0.00012                       0.00104
                       2.19365                       0.45724                      -0.01021
                      -9.91175                       4.97850                      -0.49391
                     -21.24363                       9.15383                      -1.00382
                     -31.70391                      13.11117                      -1.28763
                     -34.66336                      14.27215                      -1.30569
                     -41.23343                      17.00037                      -1.14505
                     -49.82938                      20.88505                      -0.54754
                     -57.52172                      24.60004                       0.20903
                     -64.35383                      27.94916                       0.85261
                     -70.38606                      30.73501                       1.18780
                     -75.66776                      32.83926                       1.17149
                     -80.21296                      34.27069                       0.90424
                     -84.00316                      35.13693                       0.54194
                     -87.00455                      35.58202                       0.21424
                     -89.18088                      35.74532                      -0.00761
                     -90.50345                      35.73532                      -0.11405
                     -90.95609                      35.61608                      -0.14166
                     -90.53558                      35.40334                      -0.14892
                     -89.25057                      35.07031                      -0.19182
                     -87.11746                      34.56070                      -0.30579
                     -84.15728                      33.80453                      -0.49711
                     -80.39506                      32.72060                      -0.73672
                     -75.85690                      31.22138                      -0.95807
                     -70.56383                      29.23636                      -1.07364
                     -64.52374                      26.74004                      -1.01166
                     -57.72516                      23.77024                      -0.76187
                     -50.14330                      20.41800                      -0.39837
                     -41.75372                      16.78287                      -0.04499
                     -35.39101                      14.11036                       0.12921
                     -32.53947                      12.93527                       0.17821
                     -22.49995                       8.86928                       0.25105
                     -11.64474                       4.57341                       0.16750
                       0.00020                       0.00012                       0.00104
                       2.19365                       0.45724                      -0.01021
                      11.68371                       8.17413                      -0.43987
                      20.41955                      15.36368                      -0.93039
                      28.53539                      21.95485                      -1.23577
                      30.86614                      23.80560                      -1.26657
                      36.17050                      27.84838                      -1.14234
                      43.37496                      32.98855                      -0.60156
                      50.05112                      37.48878                       0.11331
                      56.08636                      41.49245                       0.74822
                      61.36407                      45.15118                       1.11434
                      65.80656                      48.56686                       1.15592
                      69.39950                      51.75383                       0.94511
                      72.18610                      54.64580                       0.61728
                      74.23970                      57.13157                       0.30005
                      75.63761                      59.08738                       0.07391
                      76.44454                      60.40279                      -0.04009
                      76.69971                      61.00220                      -0.07238
                      76.40865                      60.85612                      -0.08146
                      75.54690                      59.97927                      -0.12566
                      74.06561                      58.42415                      -0.23883
                      71.90701                      56.26419                      -0.41750
                      69.01414                      53.57820                      -0.61981
                      65.33974                      50.43479                      -0.77609
                      60.86436                      46.87077                      -0.81932
                      55.60162                      42.88318                      -0.71635
                      49.59229                      38.43522                      -0.48536
                      42.89468                      33.47025                      -0.19961
                      35.55715                      27.94198                       0.05514
                      30.05234                      23.72571                       0.18385
                      27.59996                      21.83379                       0.22638
                      19.02014                      15.15249                       0.30297
                       9.82958                       7.87176                       0.21963
                       0.00020                       0.00012                       0.00104
                       0.01503                      -0.17961                       0.00298
                       0.53800                      -3.78340                       0.00290
                       1.08904                      -7.57543                       0.00592
                       1.64198                     -11.37582                       0.01018
                       2.19654                     -15.18327                       0.01407
                       2.75242                     -18.99648                       0.01632
                       3.30934                     -22.81416                       0.01601
                       3.86703                     -26.63502                       0.01262
                       4.42518                     -30.45775                       0.00597
                       4.98347                     -34.28109                      -0.00323
                       5.54164                     -38.10374                      -0.01391
                      -0.17814                       0.06537                       0.00298
                      -3.55276                       1.41141                       0.06824
                      -7.09340                       2.82371                       0.13346
                     -10.63276                       4.23553                       0.19047
                     -14.17106                       5.64694                       0.23504
                     -17.70851                       7.05803                       0.26385
                     -21.24535                       8.46883                       0.27461
                     -24.78180                       9.87943                       0.26616
                     -28.31808                      11.28986                       0.23849
                     -31.85440                      12.70014                       0.19227
                     -35.39101                      14.11036                       0.12921
                       0.13060                       0.11017                       0.00298
                       2.98641                       2.36298                       0.07043
                       5.98703                       4.73041                       0.13786
                       8.99038                       7.10033                       0.19739
                      11.99601                       9.47233                       0.24513
                      15.00348                      11.84600                       0.27803
                      18.01233                      14.22095                       0.29403
                      21.02209                      16.59679                       0.29212
                      24.03233                      18.97311                       0.27240
                      27.04255                      21.34955                       0.23570
                      30.05234                      23.72571                       0.18385
                       0.81564                      -0.05355                       0.00392
                       1.34110                      -3.66848                       0.09959
                       1.89437                      -7.46940                       0.26416
                       2.44927                     -11.27614                       0.48178
                       3.00559                     -15.08779                       0.73989
                       3.56307                     -18.90339                       1.02643
                       4.12146                     -22.72201                       1.32983
                       4.68045                     -26.54271                       1.63911
                       5.23974                     -30.36454                       1.94390
                       5.79896                     -34.18653                       2.23402
                       6.35783                     -38.00775                       2.50002
                       0.62247                       0.19143                       0.00392
                      -2.76311                       1.54288                      -0.16902
                      -6.31313                       2.95985                      -0.35389
                      -9.86011                       4.37551                      -0.53688
                     -13.40472                       5.79011                      -0.71242
                     -16.94765                       7.20395                      -0.87497
                     -20.48960                       8.61732                      -1.01905
                     -24.03135                      10.03052                      -1.13937
                     -27.57366                      11.44387                      -1.23080
                     -31.11737                      12.85765                      -1.28796
                     -34.66336                      14.27215                      -1.30569
                       0.93121                       0.23623                       0.00392
                       3.79772                       2.49452                      -0.14939
                       6.80705                       4.86492                      -0.31509
                       9.81666                       7.23520                      -0.48165
                      12.82628                       9.60519                      -0.64463