<?xml version="1.0"?>
<VTKFile type="PolyData" version="0.1" byte_order="LittleEndian">
  <PolyData>
    <Piece NumberOfPoints="     10" NumberOfVerts="  0" NumberOfLines="      9"
           NumberOfStrips="  0" NumberOfPolys="      0">
      <Points>
        <DataArray type="Float32" NumberOfComponents="3" format="ascii">
                      -0.09736                      -0.02497                      15.12069
                      -2.36234                      -0.60908                      15.11670
                      -4.62692                      -1.19480                      15.11441
                      -6.89070                      -1.78369                      15.11392
                      -9.15566                      -2.36813                      15.12301
                     -11.41712                      -2.96637                      15.12341
                     -13.68092                      -3.55500                      15.12268
                     -15.94466                      -4.14383                      15.12142
                     -18.20837                      -4.73269                      15.11993
                     -20.47210                      -5.32146                      15.11854
        </DataArray>
      </Points>
      <PointData>
        <DataArray type="Float32" Name="TranslationalVelocity" NumberOfComponents="3" format="ascii">
                       0.04067                      -0.17767                       0.00097
                       1.09740                      -4.27478                      -0.00069
                       2.16078                      -8.38563                      -0.00324
                       3.23310                     -12.50724                      -0.00598
                       4.29999                     -16.64133                      -0.00783
                       5.39515                     -20.78011                      -0.00815
                       6.47331                     -24.92581                      -0.00520
                       7.55271                     -29.07478                       0.00193
                       8.63256                     -33.22504                       0.01462
                       9.71206                     -37.37456                       0.03435
        </DataArray>
        <DataArray type="Float32" Name="RotationalVelocity" NumberOfComponents="3" format="ascii">
                       0.02751                       0.00663                       1.80429
                       0.02762                       0.00619                       1.81023
                       0.02767                       0.00595                       1.81569
                       0.02765                       0.00598                       1.82038
                       0.02755                       0.00632                       1.82428
                       0.02705                       0.00805                       1.82973
                       0.02663                       0.00952                       1.83129
                       0.02609                       0.01145                       1.83208
                       0.02540                       0.01388                       1.83210
                       0.02458                       0.01683                       1.83136
        </DataArray>
        <DataArray type="Float32" Name="TranslationalAcceleration" NumberOfComponents="3" format="ascii">
                       0.24765                       0.03267                      -0.09041
                       1.35976                       0.28828                      -0.08581
                       2.16935                       0.45593                      -0.10463
                       2.98185                       0.62285                      -0.13604
                       3.79955                       0.76458                      -0.18210
                      -2.18016                      -0.89028                      -0.22622
                      -1.41273                      -0.76246                      -0.24038
                      -0.66504                      -0.63752                       0.08131
                       0.10211                      -0.51887                       0.51602
                       0.84617                      -0.39870                       0.76987
        </DataArray>
        <DataArray type="Float32" Name="OrientationX" NumberOfComponents="3" format="ascii">
                      -0.00992                      -0.00275                       0.99995
                      -0.01254                      -0.00294                       0.99992
                      -0.01256                      -0.00319                       0.99992
                      -0.01028                      -0.00355                       0.99994
                       0.00014                      -0.00024                       1.00000
                      -0.00002                      -0.00133                       1.00000
                       0.00008                      -0.00173                       1.00000
                       0.00028                      -0.00204                       1.00000
                       0.00053                      -0.00226                       1.00000
                       0.00030                      -0.00057                       1.00000
        </DataArray>
        <DataArray type="Float32" Name="OrientationY" NumberOfComponents="3" format="ascii">
                      -0.25070                       0.96807                       0.00017
                      -0.24704                       0.96900                      -0.00025
                      -0.24751                       0.96889                      -0.00002
                      -0.25062                       0.96809                       0.00086
                      -0.24706                       0.96900                       0.00026
                      -0.24705                       0.96900                       0.00128
                      -0.24705                       0.96900                       0.00170
                      -0.24705                       0.96900                       0.00204
                      -0.24704                       0.96900                       0.00232
                      -0.24643                       0.96916                       0.00063
        </DataArray>
        <DataArray type="Float32" Name="OrientationZ" NumberOfComponents="3" format="ascii">
                      -0.96802                      -0.25068                      -0.01029
                      -0.96892                      -0.24702                      -0.01288
                      -0.96880                      -0.24749                      -0.01296
                      -0.96803                      -0.25060                      -0.01085
                      -0.96900                      -0.24706                       0.00008
                      -0.96900                      -0.24705                      -0.00035
                      -0.96900                      -0.24705                      -0.00035
                      -0.96900                      -0.24705                      -0.00023
                      -0.96900                      -0.24705                      -0.00004
                      -0.96916                      -0.24643                       0.00015
        </DataArray>
      </PointData>
      <Lines>
        <DataArray type="Int32" Name="connectivity" format="ascii">
      0      1
      1      2
      2      3
      3      4
      4      5
      5      6
      6      7
      7      8
      8      9
        </DataArray>
        <DataArray type="Int32" Name="offsets" format="ascii">
      2
      4
      6
      8
     10
     12
     14
     16
     18
        </DataArray>
      </Lines>
    </Piece>
  </PolyData>
</VTKFile>
