# vtk DataFile Version 2.0
Sgmt
ASCII
 
DATASET POLYDATA
POINTS 360 double
  0.44122161E-002  0.73674199E-003  0.11318264E+003
 -0.20536792E+002 -0.74042855E+000  0.10094483E+003
 -0.35021215E+002 -0.12636615E+001  0.88702773E+002
 -0.47148796E+002 -0.17028853E+001  0.76457799E+002
 -0.53212768E+002 -0.19233810E+001  0.64214947E+002
 -0.53212689E+002 -0.19233831E+001  0.51972794E+002
 -0.47148054E+002 -0.17046630E+001  0.39730362E+002
 -0.35020973E+002 -0.12646511E+001  0.27484613E+002
 -0.20537922E+002 -0.74100218E+000  0.15242145E+002
  0.59586345E-004  0.11894156E-004  0.30000384E+001
 -0.44926533E+001 -0.16174737E+000  0.11318191E+003
 -0.20698518E+002  0.36688569E+001  0.10094575E+003
 -0.35137403E+002  0.18310267E+001  0.88704736E+002
 -0.47239764E+002  0.75089808E+000  0.76458729E+002
 -0.53295258E+002  0.33088629E+000  0.64215182E+002
 -0.53296393E+002  0.37472891E+000  0.51972031E+002
 -0.47240955E+002  0.89396808E+000  0.39728586E+002
 -0.35143423E+002  0.21587782E+001  0.27484352E+002
 -0.20699633E+002  0.37560913E+001  0.15242123E+002
 -0.16225865E+000  0.44970835E+001  0.30000196E+001
 -0.43264219E+001 -0.80993894E-001  0.11318273E+003
 -0.20455902E+002  0.40413479E+001  0.10094144E+003
 -0.34923700E+002  0.24649256E+001  0.88699313E+002
 -0.47047736E+002  0.16046064E+001  0.76455982E+002
 -0.53111837E+002  0.12951849E+001  0.64213178E+002
 -0.53112453E+002  0.13390719E+001  0.51970446E+002
 -0.47049167E+002  0.17489713E+001  0.39727666E+002
 -0.34927954E+002  0.27933811E+001  0.27484937E+002
 -0.20456870E+002  0.41289637E+001  0.15242437E+002
  0.90904349E-001  0.44992720E+001  0.30000040E+001
 -0.41560000E+001  0.82663659E-015  0.11318291E+003
 -0.20207200E+002  0.44122505E+001  0.10094036E+003
 -0.34700324E+002  0.30968692E+001  0.88697816E+002
 -0.46839144E+002  0.24554692E+001  0.76455271E+002
 -0.52908554E+002  0.22557761E+001  0.64212725E+002
 -0.52908554E+002  0.22996360E+001  0.51970180E+002
 -0.46839144E+002  0.26002918E+001  0.39727634E+002
 -0.34700324E+002  0.34256185E+001  0.27485089E+002
 -0.20207200E+002  0.45000000E+001  0.15242543E+002
  0.34400000E+000  0.45000000E+001  0.29999979E+001
  0.44122161E-002  0.73674199E-003  0.11318264E+003
  0.96282846E+001  0.18158371E+002  0.10093613E+003
  0.16421559E+002  0.30968909E+002  0.88701152E+002
  0.22110202E+002  0.41696246E+002  0.76458777E+002
  0.24953147E+002  0.47057929E+002  0.64214173E+002
  0.24952676E+002  0.47057194E+002  0.51969580E+002
  0.22109637E+002  0.41695068E+002  0.39725048E+002
  0.16420638E+002  0.30967743E+002  0.27482382E+002
  0.96279114E+001  0.18157251E+002  0.15245741E+002
  0.59586345E-004  0.11894156E-004  0.30000384E+001
  0.23942681E+001 -0.38122134E+001  0.11318292E+003
  0.13525325E+002  0.16089306E+002  0.10093652E+003
  0.19157683E+002  0.29518314E+002  0.88701662E+002
  0.24279821E+002  0.40546427E+002  0.76458949E+002
  0.26946155E+002  0.46001309E+002  0.64214226E+002
  0.26984660E+002  0.45980453E+002  0.51969392E+002
  0.24407506E+002  0.40477975E+002  0.39724683E+002
  0.19447085E+002  0.29362912E+002  0.27482450E+002
  0.13603407E+002  0.16048831E+002  0.15245773E+002
  0.39757967E+001 -0.21079522E+001  0.30014137E+001
  0.24929308E+001 -0.38556625E+001  0.11318291E+003
  0.13985513E+002  0.15843218E+002  0.10093965E+003
  0.19855125E+002  0.29161974E+002  0.88698736E+002
  0.25173554E+002  0.40093714E+002  0.76456093E+002
  0.27938409E+002  0.45500632E+002  0.64213124E+002
  0.27976800E+002  0.45479443E+002  0.51969990E+002
  0.25300328E+002  0.40023629E+002  0.39726955E+002
  0.20142532E+002  0.29002612E+002  0.27484503E+002
  0.14062434E+002  0.15800870E+002  0.15243303E+002
  0.41090528E+001 -0.21793868E+001  0.30003018E+001
  0.25940000E+001 -0.38971143E+001  0.11318291E+003
  0.14440721E+002  0.15591736E+002  0.10094036E+003
  0.20548129E+002  0.28800840E+002  0.88697816E+002
  0.26062071E+002  0.39634067E+002  0.76455271E+002
  0.28923837E+002  0.44990177E+002  0.64212725E+002
  0.28961820E+002  0.44968247E+002  0.51970180E+002
  0.26187491E+002  0.39561656E+002  0.39727634E+002
  0.20832835E+002  0.28636465E+002  0.27485089E+002
  0.14516714E+002  0.15547861E+002  0.15242543E+002
  0.42411143E+001 -0.22500000E+001  0.29999979E+001
  0.44122161E-002  0.73674199E-003  0.11318264E+003
  0.10910793E+002 -0.17417313E+002  0.10093693E+003
  0.18607783E+002 -0.29705409E+002  0.88700661E+002
  0.25054419E+002 -0.39994564E+002  0.76458534E+002
  0.28276590E+002 -0.45137740E+002  0.64214348E+002
  0.28276541E+002 -0.45137653E+002  0.51969877E+002
  0.25054158E+002 -0.39993488E+002  0.39726269E+002
  0.18607602E+002 -0.29703152E+002  0.27483730E+002
  0.10910433E+002 -0.17416573E+002  0.15245554E+002
  0.59586345E-004  0.11894156E-004  0.30000384E+001
 -0.21040293E+001 -0.39747474E+001  0.11318272E+003
  0.71719749E+001 -0.19760216E+002  0.10093770E+003
  0.15983410E+002 -0.31349570E+002  0.88701197E+002
  0.22973540E+002 -0.41298126E+002  0.76458700E+002
  0.26365239E+002 -0.46335764E+002  0.64214428E+002
  0.26328194E+002 -0.46359237E+002  0.51969629E+002
  0.22850429E+002 -0.41373739E+002  0.39725953E+002
  0.15704712E+002 -0.31521967E+002  0.27483721E+002
  0.70970695E+001 -0.19805769E+002  0.15245558E+002
 -0.38133593E+001 -0.23890956E+001  0.29986820E+001
 -0.20066751E+001 -0.39368244E+001  0.11318286E+003
  0.69859750E+001 -0.19884904E+002  0.10093988E+003
  0.15585289E+002 -0.31627030E+002  0.88698642E+002
  0.22393228E+002 -0.41698415E+002  0.76456034E+002
  0.25693425E+002 -0.46796442E+002  0.64213152E+002
  0.25655920E+002 -0.46819194E+002  0.51970026E+002
  0.22269105E+002 -0.41772908E+002  0.39727260E+002
  0.15303577E+002 -0.31796052E+002  0.27484770E+002
  0.69106899E+001 -0.19929906E+002  0.15243237E+002
 -0.36839096E+001 -0.23198760E+001  0.29997237E+001
 -0.19060000E+001 -0.38971143E+001  0.11318291E+003
  0.67984790E+001 -0.20003986E+002  0.10094036E+003
  0.15184195E+002 -0.31897709E+002  0.88697816E+002
  0.21809073E+002 -0.42089536E+002  0.76455271E+002
  0.25016718E+002 -0.47245953E+002  0.64212725E+002
  0.24978734E+002 -0.47267883E+002  0.51970180E+002
  0.21683653E+002 -0.42161947E+002  0.39727634E+002
  0.14899489E+002 -0.32062084E+002  0.27485089E+002
  0.67224857E+001 -0.20047861E+002  0.15242543E+002
 -0.35531143E+001 -0.22500000E+001  0.29999979E+001
 -0.99777929E-001 -0.35580690E-002  0.15120253E+002
 -0.24372710E+001 -0.87761093E-001  0.15120243E+002
 -0.47747565E+001 -0.17220444E+000  0.15120349E+002
 -0.71122390E+001 -0.25670496E+000  0.15120343E+002
 -0.94497376E+001 -0.34069778E+000  0.15120726E+002
 -0.11787241E+002 -0.42523361E+000  0.15120790E+002
 -0.14124719E+002 -0.50957008E+000  0.15120615E+002
 -0.16462192E+002 -0.59390561E+000  0.15120333E+002
 -0.18799667E+002 -0.67823389E+000  0.15120012E+002
 -0.21137136E+002 -0.76254990E+000  0.15119736E+002
 -0.26077727E+000  0.44935609E+001  0.15119929E+002
 -0.25984405E+001  0.44093518E+001  0.15119815E+002
 -0.49375512E+001  0.43248499E+001  0.15119956E+002
 -0.72759426E+001  0.42403164E+001  0.15120321E+002
 -0.96115791E+001  0.41563910E+001  0.15120747E+002
 -0.11949075E+002  0.40718554E+001  0.15120901E+002
 -0.14286544E+002  0.39875193E+001  0.15120762E+002
 -0.16624003E+002  0.39031842E+001  0.15120508E+002
 -0.18961460E+002  0.38188566E+001  0.15120207E+002
 -0.21298847E+002  0.37345436E+001  0.15119713E+002
 -0.87094136E-002  0.44974847E+001  0.15120095E+002
 -0.23473912E+001  0.44553661E+001  0.15120071E+002
 -0.46864075E+001  0.44131826E+001  0.15120102E+002
 -0.70252066E+001  0.43709960E+001  0.15120186E+002
 -0.93633865E+001  0.43289356E+001  0.15120282E+002
 -0.11701999E+002  0.42867539E+001  0.15120317E+002
 -0.14040601E+002  0.42446071E+001  0.15120279E+002
 -0.16379199E+002  0.42024605E+001  0.15120212E+002
 -0.18717798E+002  0.41603157E+001  0.15120132E+002
 -0.21056372E+002  0.41181741E+001  0.15120018E+002
  0.24400000E+000  0.45000000E+001  0.15120120E+002
 -0.20949775E+001  0.45000000E+001  0.15120120E+002
 -0.44339551E+001  0.45000000E+001  0.15120120E+002
 -0.67729326E+001  0.45000000E+001  0.15120120E+002
 -0.91119102E+001  0.45000000E+001  0.15120120E+002
 -0.11450888E+002  0.45000000E+001  0.15120120E+002
 -0.13789865E+002  0.45000000E+001  0.15120120E+002
 -0.16128843E+002  0.45000000E+001  0.15120120E+002
 -0.18467820E+002  0.45000000E+001  0.15120120E+002
 -0.20806798E+002  0.45000000E+001  0.15120120E+002
  0.47005694E-001  0.88390656E-001  0.15120253E+002
  0.11428189E+001  0.21548700E+001  0.15120579E+002
  0.22386202E+001  0.42213591E+001  0.15120936E+002
  0.33344207E+001  0.62878475E+001  0.15121279E+002
  0.44302202E+001  0.83543346E+001  0.15121609E+002
  0.55257305E+001  0.10421048E+002  0.15122193E+002
  0.66215166E+001  0.12487533E+002  0.15122570E+002
  0.77172963E+001  0.14554018E+002  0.15122950E+002
  0.88130727E+001  0.16620497E+002  0.15123246E+002
  0.99088493E+001  0.18686967E+002  0.15123347E+002
  0.40224864E+001 -0.20200574E+001  0.15120458E+002
  0.51182870E+001  0.46398046E-001  0.15120787E+002
  0.62140732E+001  0.21128588E+001  0.15121137E+002
  0.73098427E+001  0.41792888E+001  0.15121461E+002
  0.84056079E+001  0.62457112E+001  0.15121761E+002
  0.95010031E+001  0.83122074E+001  0.15122239E+002
  0.10596800E+002  0.10378713E+002  0.15122639E+002
  0.11692585E+002  0.12445208E+002  0.15123038E+002
  0.12788359E+002  0.14511682E+002  0.15123349E+002
  0.13884345E+002  0.16578547E+002  0.15123379E+002
  0.41574554E+001 -0.20919917E+001  0.15120200E+002
  0.52902801E+001 -0.45627389E-001  0.15120259E+002
  0.64231017E+001  0.20007383E+001  0.15120323E+002
  0.75559180E+001  0.40470922E+001  0.15120380E+002
  0.86887330E+001  0.60934438E+001  0.15120430E+002
  0.98214965E+001  0.81398592E+001  0.15120535E+002
  0.10954319E+002  0.10186236E+002  0.15120638E+002
  0.12087136E+002  0.12232608E+002  0.15120754E+002
  0.13219949E+002  0.14278971E+002  0.15120856E+002
  0.14352833E+002  0.16325453E+002  0.15120883E+002
[...]
CELL_DATA 594
SCALARS Gamma double
LOOKUP_TABLE default
 -0.20358333E-002
  0.20358333E-002
 -0.50129804E-001
  0.48093971E-001
 -0.43769850E-001
 -0.63599538E-002
 -0.45116199E-001
  0.13463489E-002
 -0.47341231E-001
  0.22250323E-002
 -0.45934438E-001
 -0.14067937E-002
 -0.45782683E-001
 -0.15175484E-003
 -0.51804677E-001
  0.60219938E-002
 -0.27059359E-001
 -0.24745317E-001
 -0.27059359E-001
  0.00000000E+000
  0.20358333E-002
  0.00000000E+000
  0.48093971E-001
  0.00000000E+000
 -0.63599538E-002
  0.00000000E+000
  0.13463489E-002
  0.00000000E+000
  0.22250323E-002
  0.00000000E+000
 -0.14067937E-002
  0.00000000E+000
 -0.15175484E-003
  0.00000000E+000
  0.60219938E-002
  0.00000000E+000
 -0.24745317E-001
 -0.27059359E-001
  0.20358333E-002
  0.00000000E+000
  0.00000000E+000
  0.50129804E-001
 -0.00000000E+000
  0.00000000E+000
  0.43769850E-001
 -0.00000000E+000
  0.00000000E+000
  0.45116199E-001
 -0.00000000E+000
  0.00000000E+000
  0.47341231E-001
 -0.00000000E+000
  0.00000000E+000
  0.45934438E-001
 -0.00000000E+000
  0.00000000E+000
  0.45782683E-001
 -0.00000000E+000
  0.00000000E+000
  0.51804677E-001
 -0.00000000E+000
  0.00000000E+000
  0.27059359E-001
 -0.00000000E+000
  0.00000000E+000
 -0.00000000E+000
  0.37831218E-001
 -0.37831218E-001
  0.23374740E-001
  0.14456477E-001
  0.16846978E-001
  0.65277625E-002
  0.18749696E-001
 -0.19027177E-002
  0.20843277E-001
 -0.20935815E-002
  0.19884976E-001
  0.95830135E-003
  0.19074689E-001
  0.81028700E-003
  0.25027292E-001
 -0.59526030E-002
  0.25240302E-001
 -0.21301071E-003
  0.25240302E-001
  0.00000000E+000
 -0.37831218E-001
  0.00000000E+000
  0.14456477E-001
  0.00000000E+000
  0.65277625E-002
  0.00000000E+000
 -0.19027177E-002
  0.00000000E+000
 -0.20935815E-002
  0.00000000E+000
  0.95830135E-003
  0.00000000E+000
  0.81028700E-003
  0.00000000E+000
 -0.59526030E-002
  0.00000000E+000
 -0.21301071E-003
  0.25240302E-001
 -0.37831218E-001
 -0.00000000E+000
 -0.00000000E+000
 -0.23374740E-001
 -0.00000000E+000
 -0.00000000E+000
 -0.16846978E-001
 -0.00000000E+000
 -0.00000000E+000
 -0.18749696E-001
 -0.00000000E+000
 -0.00000000E+000
 -0.20843277E-001
 -0.00000000E+000
 -0.00000000E+000
 -0.19884976E-001
 -0.00000000E+000
 -0.00000000E+000
 -0.19074689E-001
 -0.00000000E+000
 -0.00000000E+000
 -0.25027292E-001
 -0.00000000E+000
 -0.00000000E+000
 -0.25240302E-001
 -0.00000000E+000
 -0.00000000E+000
  0.00000000E+000
  0.12168383E-001
 -0.12168383E-001
  0.26361473E-001
 -0.14193089E-001
  0.20268502E-001
  0.60929708E-002
  0.22122473E-001
 -0.18539712E-002
  0.24323726E-001
 -0.22012529E-002
  0.23479501E-001
  0.84422521E-003
  0.22930704E-001
  0.54879671E-003
  0.28397287E-001
 -0.54665826E-002
  0.76470951E-002
  0.20750192E-001
  0.76470951E-002
  0.00000000E+000
 -0.12168383E-001
  0.00000000E+000
 -0.14193089E-001
  0.00000000E+000
  0.60929708E-002
  0.00000000E+000
 -0.18539712E-002
  0.00000000E+000
 -0.22012529E-002
  0.00000000E+000
  0.84422521E-003
  0.00000000E+000
  0.54879671E-003
  0.00000000E+000
 -0.54665826E-002
  0.00000000E+000
  0.20750192E-001
  0.76470951E-002
 -0.12168383E-001
 -0.00000000E+000
 -0.00000000E+000
 -0.26361473E-001
 -0.00000000E+000
 -0.00000000E+000
 -0.20268502E-001
 -0.00000000E+000
 -0.00000000E+000
 -0.22122473E-001
 -0.00000000E+000
 -0.00000000E+000
 -0.24323726E-001
 -0.00000000E+000
 -0.00000000E+000
 -0.23479501E-001
 -0.00000000E+000
 -0.00000000E+000
 -0.22930704E-001
 -0.00000000E+000
 -0.00000000E+000
 -0.28397287E-001
 -0.00000000E+000
 -0.00000000E+000
 -0.76470951E-002
 -0.00000000E+000
 -0.00000000E+000
  0.00000000E+000
  0.18934076E-003
 -0.18934076E-003
  0.24097829E-003
 -0.51637527E-004
 -0.55800373E-004
  0.29677866E-003
 -0.16844364E-003
  0.11264327E-003
 -0.29250341E-003
  0.12405976E-003
 -0.36266584E-003
  0.70162431E-004
 -0.40673368E-003
  0.44067848E-004
 -0.44266851E-003
  0.35934829E-004
 -0.69148868E-003
  0.24882016E-003
 -0.69148868E-003
  0.00000000E+000
 -0.18934076E-003
  0.00000000E+000
 -0.51637527E-004
  0.00000000E+000
  0.29677866E-003
  0.00000000E+000
  0.11264327E-003
  0.00000000E+000
  0.12405976E-003
  0.00000000E+000
  0.70162431E-004
  0.00000000E+000
  0.44067848E-004
  0.00000000E+000
  0.35934829E-004
  0.00000000E+000
  0.24882016E-003
 -0.69148868E-003
 -0.18934076E-003
 -0.00000000E+000
 -0.00000000E+000
 -0.24097829E-003
 -0.00000000E+000
 -0.00000000E+000
  0.55800373E-004
  0.00000000E+000
  0.00000000E+000
  0.16844364E-003
 -0.00000000E+000
  0.00000000E+000
  0.29250341E-003
 -0.00000000E+000
  0.00000000E+000
  0.36266584E-003
 -0.00000000E+000
  0.00000000E+000
  0.40673368E-003
 -0.00000000E+000
  0.00000000E+000
  0.44266851E-003
 -0.00000000E+000
  0.00000000E+000
  0.69148868E-003
 -0.00000000E+000
  0.00000000E+000
 -0.00000000E+000
 -0.63332842E-004
  0.63332842E-004
 -0.56950646E-004
 -0.63821958E-005
 -0.22873159E-003
  0.17178095E-003
 -0.36846263E-003
  0.13973104E-003
 -0.52218302E-003
  0.15372039E-003
 -0.61877024E-003
  0.96587215E-004
 -0.70440604E-003
  0.85635798E-004
 -0.71012774E-003
  0.57217056E-005
 -0.77479209E-003
  0.64664345E-004
 -0.77479209E-003
  0.00000000E+000
  0.63332842E-004
  0.00000000E+000
 -0.63821958E-005
  0.00000000E+000
  0.17178095E-003
  0.00000000E+000
  0.13973104E-003
  0.00000000E+000
  0.15372039E-003
  0.00000000E+000
  0.96587215E-004
  0.00000000E+000
  0.85635798E-004
  0.00000000E+000
  0.57217056E-005
  0.00000000E+000
  0.64664345E-004
 -0.77479209E-003
  0.63332842E-004
 -0.00000000E+000
 -0.00000000E+000
  0.56950646E-004
 -0.00000000E+000
 -0.00000000E+000
  0.22873159E-003
 -0.00000000E+000
 -0.00000000E+000
  0.36846263E-003
 -0.00000000E+000
 -0.00000000E+000
  0.52218302E-003
 -0.00000000E+000
 -0.00000000E+000
  0.61877024E-003
 -0.00000000E+000
 -0.00000000E+000
  0.70440604E-003
  0.00000000E+000
  0.00000000E+000
  0.71012774E-003
 -0.00000000E+000
  0.00000000E+000
  0.77479209E-003
 -0.00000000E+000
  0.00000000E+000
 -0.00000000E+000
  0.10275771E-002
 -0.10275771E-002
  0.32039221E-002
 -0.21763449E-002
  0.25370730E-002
  0.66684911E-003
 -0.58896227E-003
  0.31260352E-002
 -0.46729003E-003
 -0.12167225E-003
 -0.74746775E-003
  0.28017772E-003
 -0.84502932E-003
  0.97561563E-004
 -0.81082738E-003
 -0.34201940E-004
 -0.72744468E-003
 -0.83382695E-004
 -0.72744468E-003
  0.00000000E+000
 -0.10275771E-002
  0.00000000E+000
 -0.21763449E-002
  0.00000000E+000
  0.66684911E-003
  0.00000000E+000
  0.31260352E-002
  0.00000000E+000
 -0.12167225E-003
  0.00000000E+000
  0.28017772E-003
  0.00000000E+000
  0.97561563E-004
  0.00000000E+000
 -0.34201940E-004
  0.00000000E+000
 -0.83382695E-004
 -0.72744468E-003
 -0.10275771E-002
 -0.00000000E+000
 -0.00000000E+000
 -0.32039221E-002
 -0.00000000E+000
 -0.00000000E+000
 -0.25370730E-002
 -0.00000000E+000
 -0.00000000E+000
  0.58896227E-003
  0.00000000E+000
  0.00000000E+000
  0.46729003E-003
 -0.00000000E+000
  0.00000000E+000
  0.74746775E-003
 -0.00000000E+000
  0.00000000E+000
  0.84502932E-003
 -0.00000000E+000
  0.00000000E+000
  0.81082738E-003
 -0.00000000E+000
  0.00000000E+000
  0.72744468E-003
 -0.00000000E+000
  0.00000000E+000
 -0.00000000E+000
 -0.10115168E-002
  0.10115168E-002
 -0.26719562E-003
 -0.74432121E-003
 -0.85798379E-003
  0.59078817E-003
 -0.99401015E-003
  0.13602636E-003
 -0.11774926E-002
  0.18348249E-003
 -0.13590817E-002
  0.18158900E-003
 -0.15124619E-002
  0.15338020E-003
 -0.15204475E-002
  0.79856616E-005
 -0.15124189E-002
 -0.80285949E-005
 -0.15124189E-002
  0.00000000E+000
  0.10115168E-002
  0.00000000E+000
 -0.74432121E-003
  0.00000000E+000
  0.59078817E-003
  0.00000000E+000
  0.13602636E-003
  0.00000000E+000
  0.18348249E-003
  0.00000000E+000
  0.18158900E-003
  0.00000000E+000
  0.15338020E-003
  0.00000000E+000
  0.79856616E-005
  0.00000000E+000
 -0.80285949E-005
 -0.15124189E-002
  0.10115168E-002
  0.00000000E+000
  0.00000000E+000
  0.26719562E-003
 -0.00000000E+000
  0.00000000E+000
  0.85798379E-003
 -0.00000000E+000
  0.00000000E+000
  0.99401015E-003
 -0.00000000E+000
  0.00000000E+000
  0.11774926E-002
 -0.00000000E+000
  0.00000000E+000
  0.13590817E-002
 -0.00000000E+000
  0.00000000E+000
  0.15124619E-002
 -0.00000000E+000
  0.00000000E+000
  0.15204475E-002
 -0.00000000E+000
  0.00000000E+000
  0.15124189E-002
 -0.00000000E+000
  0.00000000E+000
 -0.00000000E+000
 -0.77192537E-003
  0.77192537E-003
 -0.75264767E-003
 -0.19277702E-004
 -0.72952897E-003
 -0.23118700E-004
 -0.60798763E-003
 -0.12154133E-003
 -0.36459343E-003
 -0.24339420E-003
 -0.78938216E-004
 -0.28565522E-003
  0.26207786E-003
 -0.34101608E-003
  0.54504595E-003
 -0.28296809E-003
  0.96215060E-003
 -0.41710465E-003
  0.96215060E-003
  0.00000000E+000
  0.77192537E-003
  0.00000000E+000
 -0.19277702E-004
  0.00000000E+000
 -0.23118700E-004
  0.00000000E+000
 -0.12154133E-003
  0.00000000E+000
 -0.24339420E-003
  0.00000000E+000
 -0.28565522E-003
  0.00000000E+000
 -0.34101608E-003
  0.00000000E+000
 -0.28296809E-003
  0.00000000E+000
 -0.41710465E-003
  0.96215060E-003
  0.77192537E-003
  0.00000000E+000
  0.00000000E+000
  0.75264767E-003
 -0.00000000E+000
  0.00000000E+000
  0.72952897E-003
 -0.00000000E+000
  0.00000000E+000
  0.60798763E-003
 -0.00000000E+000
  0.00000000E+000
  0.36459343E-003
 -0.00000000E+000
  0.00000000E+000
  0.78938216E-004
 -0.00000000E+000
  0.00000000E+000
 -0.26207786E-003
 -0.00000000E+000
  0.00000000E+000
 -0.54504595E-003
 -0.00000000E+000
  0.00000000E+000
 -0.96215060E-003
 -0.00000000E+000
  0.00000000E+000
 -0.00000000E+000
  0.34510427E-002
 -0.34510427E-002
  0.45722743E-002
 -0.11212316E-002
  0.23686286E-002
  0.22036456E-002
 -0.30412901E-003
  0.26727576E-002
  0.54411804E-004
 -0.35854081E-003
  0.14730269E-003
 -0.92890887E-004
  0.40412293E-003
 -0.25682024E-003
  0.57661044E-003
 -0.17248752E-003
  0.78188161E-003
 -0.20527117E-003
  0.78188161E-003
  0.00000000E+000
 -0.34510427E-002
  0.00000000E+000
 -0.11212316E-002
  0.00000000E+000
  0.22036456E-002
  0.00000000E+000
  0.26727576E-002
  0.00000000E+000
 -0.35854081E-003
  0.00000000E+000
 -0.92890887E-004
  0.00000000E+000
 -0.25682024E-003
  0.00000000E+000
 -0.17248752E-003
  0.00000000E+000
 -0.20527117E-003
  0.78188161E-003
 -0.34510427E-002
 -0.00000000E+000
 -0.00000000E+000
 -0.45722743E-002
 -0.00000000E+000
 -0.00000000E+000
 -0.23686286E-002
 -0.00000000E+000
 -0.00000000E+000
  0.30412901E-003
  0.00000000E+000
  0.00000000E+000
 -0.54411804E-004
 -0.00000000E+000
  0.00000000E+000
 -0.14730269E-003
 -0.00000000E+000
  0.00000000E+000
 -0.40412293E-003
 -0.00000000E+000
  0.00000000E+000
 -0.57661044E-003
 -0.00000000E+000
  0.00000000E+000
 -0.78188161E-003
 -0.00000000E+000
  0.00000000E+000
 -0.00000000E+000
SCALARS Epsilon double
LOOKUP_TABLE default
  0.23921366E+002
  0.23921366E+002
  0.18971836E+002
  0.21446601E+002
  0.17240385E+002
  0.18106111E+002
  0.13664467E+002
  0.15452426E+002
  0.12242545E+002
  0.12953506E+002
  0.13664467E+002
  0.12953506E+002
  0.17240385E+002
  0.15452426E+002
  0.18971836E+002
  0.18106111E+002
  0.23921366E+002
  0.21446601E+002
  0.23921366E+002
  0.23921366E+002
  0.23921366E+002
  0.18971836E+002
  0.21446601E+002
  0.17240385E+002
  0.18106111E+002
  0.13664467E+002
  0.15452426E+002
  0.12242545E+002
  0.12953506E+002
  0.13664467E+002
  0.12953506E+002
  0.17240385E+002
  0.15452426E+002
  0.18971836E+002
  0.18106111E+002
  0.23921366E+002
  0.21446601E+002
  0.23921366E+002
  0.23921366E+002
  0.23921366E+002
  0.23921366E+002
  0.18971836E+002
  0.21446601E+002
  0.18971836E+002
  0.17240385E+002
  0.18106111E+002
  0.17240385E+002
  0.13664467E+002
  0.15452426E+002
  0.13664467E+002
  0.12242545E+002
  0.12953506E+002
  0.12242545E+002
  0.13664467E+002
  0.12953506E+002
  0.13664467E+002
  0.17240385E+002
  0.15452426E+002
  0.17240385E+002
  0.18971836E+002
  0.18106111E+002
  0.18971836E+002
  0.23921366E+002
  0.21446601E+002
  0.23921366E+002
  0.23921366E+002
  0.23921366E+002
  0.23921366E+002
  0.18971836E+002
  0.21446601E+002
  0.17240385E+002
  0.18106111E+002
  0.13664467E+002
  0.15452426E+002
  0.12242545E+002
  0.12953506E+002
  0.13664467E+002
  0.12953506E+002
  0.17240385E+002
  0.15452426E+002
  0.18971836E+002
  0.18106111E+002
  0.23921366E+002
  0.21446601E+002
  0.23921366E+002
  0.23921366E+002
  0.23921366E+002
  0.18971836E+002
  0.21446601E+002
  0.17240385E+002
  0.18106111E+002
  0.13664467E+002
  0.15452426E+002
  0.12242545E+002
  0.12953506E+002
  0.13664467E+002
  0.12953506E+002
  0.17240385E+002
  0.15452426E+002
  0.18971836E+002
  0.18106111E+002
  0.23921366E+002
  0.21446601E+002
  0.23921366E+002
  0.23921366E+002
  0.23921366E+002
  0.23921366E+002
  0.18971836E+002
  0.21446601E+002
  0.18971836E+002
  0.17240385E+002
  0.18106111E+002
  0.17240385E+002
  0.13664467E+002
  0.15452426E+002
  0.13664467E+002
  0.12242545E+002
  0.12953506E+002
  0.12242545E+002
  0.13664467E+002
  0.12953506E+002
  0.13664467E+002
  0.17240385E+002
  0.15452426E+002
  0.17240385E+002
  0.18971836E+002
  0.18106111E+002
  0.18971836E+002
  0.23921366E+002
  0.21446601E+002
  0.23921366E+002
  0.23921366E+002
  0.23921366E+002
  0.23921366E+002
  0.18971836E+002
  0.21446601E+002
  0.17240385E+002
  0.18106111E+002
  0.13664467E+002
  0.15452426E+002
  0.12242545E+002
  0.12953506E+002
  0.13664467E+002
  0.12953506E+002
  0.17240385E+002
  0.15452426E+002
  0.18971836E+002
  0.18106111E+002
  0.23921366E+002
  0.21446601E+002
  0.23921366E+002
  0.23921366E+002
  0.23921366E+002
  0.18971836E+002
  0.21446601E+002
  0.17240385E+002
  0.18106111E+002
  0.13664467E+002
  0.15452426E+002
  0.12242545E+002
  0.12953506E+002
  0.13664467E+002
  0.12953506E+002
  0.17240385E+002
  0.15452426E+002
  0.18971836E+002
  0.18106111E+002
  0.23921366E+002
  0.21446601E+002
  0.23921366E+002
  0.23921366E+002
  0.23921366E+002
  0.23921366E+002
  0.18971836E+002
  0.21446601E+002
  0.18971836E+002
  0.17240385E+002
  0.18106111E+002
  0.17240385E+002
  0.13664467E+002
  0.15452426E+002
  0.13664467E+002
  0.12242545E+002
  0.12953506E+002
  0.12242545E+002
  0.13664467E+002
  0.12953506E+002
  0.13664467E+002
  0.17240385E+002
  0.15452426E+002
  0.17240385E+002
  0.18971836E+002
  0.18106111E+002
  0.18971836E+002
  0.23921366E+002
  0.21446601E+002
  0.23921366E+002
  0.23921366E+002
  0.23389775E+001
  0.23389775E+001
  0.23389775E+001
  0.23389775E+001
  0.23389775E+001
  0.23389775E+001
  0.23389775E+001
  0.23389775E+001
  0.23389775E+001
  0.23389775E+001
  0.23389775E+001
  0.23389775E+001
  0.23389775E+001
  0.23389775E+001
  0.23389775E+001
  0.23389775E+001
  0.23389775E+001
  0.23389775E+001
  0.23389775E+001
  0.23389775E+001
  0.23389775E+001
  0.23389775E+001
  0.23389775E+001
  0.23389775E+001
  0.23389775E+001
  0.23389775E+001
  0.23389775E+001
  0.23389775E+001
  0.23389775E+001
  0.23389775E+001
  0.23389775E+001
  0.23389775E+001
  0.23389775E+001
  0.23389775E+001
  0.23389775E+001
  0.23389775E+001
  0.23389775E+001
  0.23389775E+001
  0.23389775E+001
  0.23389775E+001
  0.23389775E+001
  0.23389775E+001
  0.23389775E+001
  0.23389775E+001
  0.23389775E+001
  0.23389775E+001
  0.23389775E+001
  0.23389775E+001
  0.23389775E+001
  0.23389775E+001
  0.23389775E+001
  0.23389775E+001
  0.23389775E+001
  0.23389775E+001
  0.23389775E+001
  0.23389775E+001
  0.23389775E+001
  0.23389775E+001
  0.23389775E+001
  0.23389775E+001
  0.23389775E+001
  0.23389775E+001
  0.23389775E+001
  0.23389775E+001
  0.23389775E+001
  0.23389775E+001
  0.23389775E+001
  0.23389775E+001
  0.23389775E+001
  0.23389775E+001
  0.23389775E+001
  0.23389775E+001
  0.23389775E+001
  0.23389775E+001
  0.23389775E+001
  0.23389775E+001
  0.23389775E+001
  0.23389775E+001
  0.23389775E+001
  0.23389775E+001
  0.23389775E+001
  0.23389775E+001
  0.23389775E+001
  0.23389775E+001
  0.23389775E+001
  0.23389775E+001
  0.23389775E+001
  0.23389775E+001
  0.23389775E+001
  0.23389775E+001
  0.23389775E+001
  0.23389775E+001
  0.23389775E+001
  0.23389775E+001
  0.23389775E+001
  0.23389775E+001
  0.23389775E+001
  0.23389775E+001
  0.23389775E+001
  0.23389775E+001
  0.23389775E+001
  0.23389775E+001
  0.23389775E+001
  0.23389775E+001
  0.23389775E+001
  0.23389775E+001
  0.23389775E+001
  0.23389775E+001
  0.23389775E+001
  0.23389775E+001
  0.23389775E+001
  0.23389775E+001
  0.23389775E+001
  0.23389775E+001
  0.23389775E+001
  0.23389775E+001
  0.23389775E+001
  0.23389775E+001
  0.23389775E+001
  0.23389775E+001
  0.23389775E+001
  0.23389775E+001
  0.23389775E+001
  0.23389775E+001
  0.23389775E+001
  0.23389775E+001
  0.23389775E+001
  0.23389775E+001
  0.23389775E+001
  0.23389775E+001
  0.23389775E+001
  0.23389775E+001
  0.23389775E+001
  0.23389775E+001
  0.23389775E+001
  0.23389775E+001
  0.23389775E+001
  0.23389775E+001
  0.23389775E+001
  0.23389775E+001
  0.23389775E+001
  0.23389775E+001
  0.23389775E+001
  0.23389775E+001
  0.23389775E+001
  0.23389775E+001
  0.23389775E+001
  0.23389775E+001
  0.23389775E+001
  0.23389775E+001
  0.23389775E+001
  0.23389775E+001
  0.23389775E+001
  0.23389775E+001
  0.23389775E+001
  0.23389775E+001
  0.23389775E+001
  0.23389775E+001
  0.23389775E+001
  0.23389775E+001
  0.23389775E+001
  0.23389775E+001
  0.23389775E+001
  0.23389775E+001
  0.23389775E+001
  0.23389775E+001
  0.23389775E+001
  0.23389775E+001
  0.23389775E+001
  0.23389775E+001
  0.23389775E+001
  0.23389775E+001
  0.23389775E+001
  0.23389775E+001
  0.23389775E+001
  0.23389775E+001
  0.23389775E+001
  0.23389775E+001
  0.23389775E+001
  0.23389775E+001
  0.23389775E+001
  0.23389775E+001
  0.23389775E+001
  0.23389775E+001
  0.23389775E+001
  0.23389775E+001
  0.23389775E+001
  0.23389775E+001
  0.23389775E+001
  0.23389775E+001
  0.23389775E+001
  0.23389775E+001
  0.23389775E+001
  0.23389775E+001
  0.23389775E+001
  0.23389775E+001
  0.23389775E+001
  0.23389775E+001
  0.23389775E+001
  0.23389775E+001
  0.23389775E+001
  0.23389775E+001
  0.23389775E+001
  0.23389775E+001
  0.23389775E+001
  0.23389775E+001
  0.23389775E+001
  0.23389775E+001
  0.23389775E+001
  0.23389775E+001
  0.23389775E+001
  0.23389775E+001
  0.23389775E+001
  0.23389775E+001
  0.23389775E+001
  0.23389775E+001
  0.23389775E+001
  0.23389775E+001
  0.23389775E+001
  0.23389775E+001
  0.23389775E+001
  0.23389775E+001
  0.23389775E+001
  0.23389775E+001
  0.23389775E+001
  0.23389775E+001
  0.23389775E+001
  0.23389775E+001
  0.23389775E+001
  0.23389775E+001
  0.23389775E+001
  0.23389775E+001
  0.23389775E+001
  0.23389775E+001
  0.23389775E+001
  0.23389775E+001
  0.23389775E+001
  0.23389775E+001
  0.23389775E+001
  0.23389775E+001
  0.23389775E+001
  0.23389775E+001
  0.23389775E+001
  0.23389775E+001
  0.23389775E+001
  0.23389775E+001
  0.23389775E+001
  0.23389775E+001
  0.23389775E+001
  0.23389775E+001
  0.23389775E+001
  0.23389775E+001
  0.23389775E+001
  0.23389775E+001
  0.23389775E+001
  0.23389775E+001
  0.23389775E+001
  0.23389775E+001
  0.23389775E+001
  0.23389775E+001
  0.23389775E+001
  0.23389775E+001
  0.23389775E+001
  0.23389775E+001
  0.23389775E+001
  0.23389775E+001
  0.23389775E+001
  0.23389775E+001
  0.23389775E+001
  0.23389775E+001
  0.23389775E+001
  0.23389775E+001
  0.23389775E+001
  0.23389775E+001
  0.23389775E+001
  0.23389775E+001
  0.23389775E+001
  0.23389775E+001
  0.23389775E+001
  0.23389775E+001
  0.23389775E+001
  0.23389775E+001
  0.23389775E+001
  0.23389775E+001
  0.23389775E+001
  0.23389775E+001
  0.23389775E+001
  0.23389775E+001
  0.23389775E+001
  0.23389775E+001
  0.23389775E+001
  0.23389775E+001
  0.23389775E+001
  0.23389775E+001
  0.23389775E+001
  0.23389775E+001
  0.23389775E+001
  0.23389775E+001
  0.23389775E+001
  0.23389775E+001
  0.23389775E+001
  0.23389775E+001
  0.23389775E+001
  0.23389775E+001
  0.23389775E+001
  0.23389775E+001
  0.23389775E+001
  0.23389775E+001
  0.23389775E+001
  0.23389775E+001
  0.23389775E+001
  0.23389775E+001
  0.23389775E+001