# vtk DataFile Version 2.0

ASCII
 
DATASET POLYDATA
POINTS 190 double
  0.34926978E+000  0.77832587E-001  0.11318060E+003
 -0.19430110E+002 -0.62367044E+001  0.10131326E+003
 -0.33346681E+002 -0.10754770E+002  0.89212190E+002
 -0.44638314E+002 -0.14536888E+002  0.76788995E+002
 -0.50279135E+002 -0.16457480E+002  0.64498619E+002
 -0.50291391E+002 -0.16481533E+002  0.52249151E+002
 -0.44621178E+002 -0.14567719E+002  0.39974365E+002
 -0.33329633E+002 -0.10728385E+002  0.27528593E+002
 -0.19577470E+002 -0.62560136E+001  0.15242269E+002
  0.15741017E-003  0.26351259E-004  0.30001956E+001
 -0.39383217E+001 -0.12858729E+001  0.11309774E+003
 -0.20790867E+002 -0.20395321E+001  0.10130707E+003
 -0.34318428E+002 -0.78143106E+001  0.89210143E+002
 -0.45365483E+002 -0.12191624E+002  0.76771976E+002
 -0.50914299E+002 -0.14292995E+002  0.64488841E+002
 -0.50942387E+002 -0.14275989E+002  0.52259489E+002
 -0.45363042E+002 -0.12075505E+002  0.39979150E+002
 -0.34335396E+002 -0.74537487E+001  0.27536176E+002
 -0.20915711E+002 -0.19596086E+001  0.15246115E+002
 -0.13544455E+001  0.42912996E+001  0.30052295E+001
 -0.38238686E+001 -0.12193327E+001  0.11310699E+003
 -0.20682382E+002 -0.16528049E+001  0.10130413E+003
 -0.34305472E+002 -0.71713890E+001  0.89179963E+002
 -0.45454067E+002 -0.11338876E+002  0.76747818E+002
 -0.51059232E+002 -0.13333305E+002  0.64462491E+002
 -0.51084561E+002 -0.13314441E+002  0.52226759E+002
 -0.45453950E+002 -0.11224739E+002  0.39944458E+002
 -0.34320535E+002 -0.68196073E+001  0.27510482E+002
 -0.20793666E+002 -0.15737002E+001  0.15233296E+002
 -0.11080040E+001  0.43154859E+001  0.30042509E+001
 -0.37072758E+001 -0.11520748E+001  0.11311638E+003
 -0.20564796E+002 -0.12658809E+001  0.10130020E+003
 -0.34280130E+002 -0.65264476E+001  0.89150800E+002
 -0.45529788E+002 -0.10482422E+002  0.76726892E+002
 -0.51189975E+002 -0.12368560E+002  0.64438409E+002
 -0.51212033E+002 -0.12347634E+002  0.52194378E+002
 -0.45530219E+002 -0.10369305E+002  0.39909396E+002
 -0.34294113E+002 -0.61823929E+001  0.27485495E+002
 -0.20663275E+002 -0.11875016E+001  0.15222210E+002
 -0.86126278E+000  0.43376408E+001  0.30040602E+001
 -0.35886005E+001 -0.10839437E+001  0.11313831E+003
 -0.20436656E+002 -0.87954140E+000  0.10129873E+003
 -0.34241821E+002 -0.58799345E+001  0.89122189E+002
 -0.45587887E+002 -0.96227946E+001  0.76707083E+002
 -0.51304760E+002 -0.11399301E+002  0.64415524E+002
 -0.51325809E+002 -0.11376279E+002  0.52161954E+002
 -0.45590355E+002 -0.95097634E+001  0.39874717E+002
 -0.34255320E+002 -0.55425071E+001  0.27461382E+002
 -0.20524022E+002 -0.80143664E+000  0.15210697E+002
 -0.61426010E+000  0.43576779E+001  0.30042811E+001
 -0.34673602E+001 -0.10149877E+001  0.11313991E+003
 -0.20297229E+002 -0.49433255E+000  0.10129696E+003
 -0.34189775E+002 -0.52323765E+001  0.89093577E+002
 -0.45632955E+002 -0.87601650E+001  0.76690568E+002
 -0.51403486E+002 -0.10426064E+002  0.64395149E+002
 -0.51420438E+002 -0.10400722E+002  0.52131312E+002
 -0.45635763E+002 -0.86464647E+001  0.39839814E+002
 -0.34203204E+002 -0.49004086E+001  0.27439047E+002
 -0.20374658E+002 -0.41533474E+000  0.15208322E+002
 -0.36590590E+000  0.43761424E+001  0.30088632E+001
 -0.33435948E+001 -0.94513613E+000  0.11312205E+003
 -0.20148422E+002 -0.10992076E+000  0.10128156E+003
 -0.34122976E+002 -0.45843861E+001  0.89063594E+002
 -0.45663978E+002 -0.78948569E+001  0.76676975E+002
 -0.51488177E+002 -0.94492808E+001  0.64377247E+002
 -0.51501588E+002 -0.94217376E+001  0.52100950E+002
 -0.45666695E+002 -0.77798334E+001  0.39804533E+002
 -0.34136757E+002 -0.42565924E+001  0.27420193E+002
 -0.20215887E+002 -0.30017871E-001  0.15203886E+002
 -0.11743434E+000  0.43932087E+001  0.30130253E+001
 -0.32173136E+001 -0.87449451E+000  0.11312329E+003
 -0.19988767E+002  0.27299888E+000  0.10127515E+003
 -0.34045198E+002 -0.39370505E+001  0.89037103E+002
 -0.45676201E+002 -0.70275324E+001  0.76664066E+002
 -0.51552903E+002 -0.84694357E+001  0.64360580E+002
 -0.51564000E+002 -0.84397078E+001  0.52071606E+002
 -0.45678941E+002 -0.69105856E+001  0.39771088E+002
 -0.34061414E+002 -0.36127341E+001  0.27398083E+002
 -0.20047801E+002  0.35412958E+000  0.15200041E+002
  0.13106748E+000  0.44082600E+001  0.30216858E+001
 -0.30882192E+001 -0.80328746E+000  0.11312413E+003
 -0.19820938E+002  0.65546822E+000  0.10125724E+003
 -0.33950646E+002 -0.32902525E+001  0.89008198E+002
 -0.45666473E+002 -0.61589069E+001  0.76650048E+002
 -0.51594530E+002 -0.74870847E+001  0.64345368E+002
 -0.51603655E+002 -0.74552304E+001  0.52043908E+002
 -0.45668789E+002 -0.60395348E+001  0.39742033E+002
 -0.33965097E+002 -0.29679864E+001  0.27385670E+002
 -0.19870526E+002  0.73723679E+000  0.15198624E+002
  0.37958610E+000  0.44217225E+001  0.30307796E+001
 -0.29561352E+001 -0.73117323E+000  0.11312459E+003
 -0.19643019E+002  0.10359876E+001  0.10123676E+003
 -0.33837485E+002 -0.26449609E+001  0.88975247E+002
 -0.45633946E+002 -0.52911037E+001  0.76637205E+002
 -0.51606130E+002 -0.65040505E+001  0.64328825E+002
 -0.51619250E+002 -0.64701883E+001  0.52019561E+002
 -0.45632725E+002 -0.51677163E+001  0.39719092E+002
 -0.33851059E+002 -0.23234109E+001  0.27378672E+002
 -0.19684485E+002  0.11193080E+001  0.15198041E+002
  0.62816053E+000  0.44336928E+001  0.30372999E+001
 -0.28205079E+001 -0.65782039E+000  0.11310779E+003
 -0.19454005E+002  0.14143256E+001  0.10121513E+003
 -0.33706621E+002 -0.20013557E+001  0.88939871E+002
 -0.45575243E+002 -0.44234671E+001  0.76621169E+002
 -0.51579714E+002 -0.55208194E+001  0.64311887E+002
 -0.51587848E+002 -0.54843628E+001  0.51999981E+002
 -0.45578495E+002 -0.42973301E+001  0.39693875E+002
 -0.33715435E+002 -0.16793514E+001  0.27381884E+002
 -0.19489079E+002  0.14997713E+001  0.15199349E+002
  0.87705151E+000  0.44436461E+001  0.30418941E+001
 -0.26817616E+001 -0.58253044E+000  0.11310731E+003
 -0.19257074E+002  0.17906405E+001  0.10116989E+003
 -0.33557669E+002 -0.13600264E+001  0.88902121E+002
 -0.45490035E+002 -0.35578334E+001  0.76601488E+002
 -0.51505563E+002 -0.45395350E+001  0.64292727E+002
 -0.51513466E+002 -0.45010532E+001  0.51986683E+002
 -0.45491436E+002 -0.34281416E+001  0.39681676E+002
 -0.33560951E+002 -0.10373282E+001  0.27390167E+002
 -0.19288675E+002  0.18783026E+001  0.15200914E+002
  0.11263865E+001  0.44523252E+001  0.30468519E+001
 -0.25392354E+001 -0.50605712E+000  0.11310929E+003
 -0.19068763E+002  0.21667973E+001  0.10114090E+003
 -0.33387096E+002 -0.72121228E+000  0.88857951E+002
 -0.45375241E+002 -0.26945313E+001  0.76576568E+002
 -0.51394748E+002 -0.35625516E+001  0.64274224E+002
 -0.51401863E+002 -0.35221706E+001  0.51976907E+002
 -0.45375427E+002 -0.25612585E+001  0.39678274E+002
 -0.33390127E+002 -0.39721845E+000  0.27404749E+002
 -0.19086248E+002  0.22552872E+001  0.15189222E+002
  0.13762893E+001  0.44596772E+001  0.30515889E+001
 -0.23926106E+001 -0.42851097E+000  0.11311021E+003
 -0.18853595E+002  0.25400519E+001  0.10107636E+003
 -0.33200950E+002 -0.85142192E-001  0.88813962E+002
 -0.45232546E+002 -0.18342963E+001  0.76548133E+002
 -0.51245719E+002 -0.25907828E+001  0.64254451E+002
 -0.51255428E+002 -0.25487012E+001  0.51973018E+002
 -0.45226247E+002 -0.16975787E+001  0.39688093E+002
 -0.33203418E+002  0.24052432E+000  0.27423229E+002
 -0.18865277E+002  0.26320451E+001  0.15198668E+002
  0.16268138E+001  0.44655329E+001  0.30564377E+001
 -0.22416553E+001 -0.34996526E+000  0.11311134E+003
 -0.18628784E+002  0.29119990E+001  0.10102674E+003
 -0.33000964E+002  0.54849652E+000  0.88772694E+002
 -0.45059624E+002 -0.97760370E+000  0.76512391E+002
 -0.51073236E+002 -0.16241267E+001  0.64235307E+002
 -0.51078237E+002 -0.15806727E+001  0.51973933E+002
 -0.45054230E+002 -0.83761528E+000  0.39703493E+002
 -0.33002570E+002  0.87587555E+000  0.27444444E+002
 -0.18636701E+002  0.30069080E+001  0.15207941E+002
  0.18782474E+001  0.44711386E+001  0.30592933E+001
 -0.20862435E+001 -0.27044478E+000  0.11311226E+003
 -0.18397410E+002  0.32836431E+001  0.10097756E+003
 -0.32788625E+002  0.11798171E+001  0.88734672E+002
 -0.44868296E+002 -0.12403907E+000  0.76478272E+002
 -0.50878521E+002 -0.66120594E+000  0.64218032E+002
 -0.50882304E+002 -0.61681990E+000  0.51977749E+002
 -0.44864150E+002  0.18775517E-001  0.39721799E+002
 -0.32789462E+002  0.15089082E+001  0.27466996E+002
 -0.18401704E+002  0.33805543E+001  0.15214926E+002
  0.21298359E+001  0.44753354E+001  0.30628114E+001
 -0.19260603E+001 -0.19028429E+000  0.11311222E+003
 -0.18157504E+002  0.36539241E+001  0.10093555E+003
 -0.32564504E+002  0.18088832E+001  0.88701950E+002
 -0.44657972E+002  0.72632199E+000  0.76447221E+002
 -0.50673306E+002  0.29915071E+000  0.64204955E+002
 -0.50675968E+002  0.34392351E+000  0.51982669E+002
 -0.44656257E+002  0.87154240E+000  0.39742299E+002
 -0.32565426E+002  0.21395554E+001  0.27488601E+002
 -0.18159294E+002  0.37519888E+001  0.15217759E+002
  0.23815305E+001  0.44781867E+001  0.30669776E+001
 -0.17608116E+001 -0.10965232E+000  0.11311112E+003
 -0.17911992E+002  0.40228695E+001  0.10088733E+003
 -0.32333443E+002  0.24363285E+001  0.88678505E+002
 -0.44436411E+002  0.15740747E+001  0.76423515E+002
 -0.50452724E+002  0.12567334E+001  0.64194486E+002
 -0.50455110E+002  0.13014597E+001  0.51989707E+002
 -0.44436565E+002  0.17208896E+001  0.39760933E+002
 -0.32348259E+002  0.27702764E+001  0.27490600E+002
 -0.17910696E+002  0.41217654E+001  0.15229829E+002
  0.26331699E+001  0.44800657E+001  0.30695186E+001
 -0.15914343E+001 -0.29044275E-001  0.11310950E+003
 -0.17659342E+002  0.43915391E+001  0.10085730E+003
 -0.32111199E+002  0.30657044E+001  0.88679471E+002
 -0.44206194E+002  0.24204043E+001  0.76406679E+002
 -0.50229061E+002  0.22133394E+001  0.64188826E+002
 -0.50230127E+002  0.22578088E+001  0.51994789E+002
 -0.44206080E+002  0.25677332E+001  0.39775920E+002
 -0.32113110E+002  0.33981642E+001  0.27497525E+002
 -0.17655334E+002  0.44899056E+001  0.15236541E+002
  0.28846490E+001  0.44805745E+001  0.30723762E+001
  
POLYGONS 162 810
      4      0      1     11     10
      4      1      2     12     11
      4      2      3     13     12
      4      3      4     14     13
      4      4      5     15     14
      4      5      6     16     15
      4      6      7     17     16
      4      7      8     18     17
      4      8      9     19     18
      4     10     11     21     20
      4     11     12     22     21
      4     12     13     23     22
      4     13     14     24     23
      4     14     15     25     24
      4     15     16     26     25
      4     16     17     27     26
      4     17     18     28     27
      4     18     19     29     28
      4     20     21     31     30
      4     21     22     32     31
      4     22     23     33     32
      4     23     24     34     33
      4     24     25     35     34
      4     25     26     36     35
      4     26     27     37     36
      4     27     28     38     37
      4     28     29     39     38
      4     30     31     41     40
      4     31     32     42     41
      4     32     33     43     42
      4     33     34     44     43
      4     34     35     45     44
      4     35     36     46     45
      4     36     37     47     46
      4     37     38     48     47
      4     38     39     49     48
      4     40     41     51     50
      4     41     42     52     51
      4     42     43     53     52
      4     43     44     54     53
      4     44     45     55     54
      4     45     46     56     55
      4     46     47     57     56
      4     47     48     58     57
      4     48     49     59     58
      4     50     51     61     60
      4     51     52     62     61
      4     52     53     63     62
      4     53     54     64     63
      4     54     55     65     64
      4     55     56     66     65
      4     56     57     67     66
      4     57     58     68     67
      4     58     59     69     68
      4     60     61     71     70
      4     61     62     72     71
      4     62     63     73     72
      4     63     64     74     73
      4     64     65     75     74
      4     65     66     76     75
      4     66     67     77     76
      4     67     68     78     77
      4     68     69     79     78
      4     70     71     81     80
      4     71     72     82     81
      4     72     73     83     82
      4     73     74     84     83
      4     74     75     85     84
      4     75     76     86     85
      4     76     77     87     86
      4     77     78     88     87
      4     78     79     89     88
      4     80     81     91     90
      4     81     82     92     91
      4     82     83     93     92
      4     83     84     94     93
      4     84     85     95     94
      4     85     86     96     95
      4     86     87     97     96
      4     87     88     98     97
      4     88     89     99     98
      4     90     91    101    100
      4     91     92    102    101
      4     92     93    103    102
      4     93     94    104    103
      4     94     95    105    104
      4     95     96    106    105
      4     96     97    107    106
      4     97     98    108    107
      4     98     99    109    108
      4    100    101    111    110
      4    101    102    112    111
      4    102    103    113    112
      4    103    104    114    113
      4    104    105    115    114
      4    105    106    116    115
      4    106    107    117    116
      4    107    108    118    117
      4    108    109    119    118
      4    110    111    121    120
      4    111    112    122    121
      4    112    113    123    122
      4    113    114    124    123
      4    114    115    125    124
      4    115    116    126    125
      4    116    117    127    126
      4    117    118    128    127
      4    118    119    129    128
      4    120    121    131    130
      4    121    122    132    131
      4    122    123    133    132
      4    123    124    134    133
      4    124    125    135    134
      4    125    126    136    135
      4    126    127    137    136
      4    127    128    138    137
      4    128    129    139    138
      4    130    131    141    140
      4    131    132    142    141
      4    132    133    143    142
      4    133    134    144    143
      4    134    135    145    144
      4    135    136    146    145
      4    136    137    147    146
      4    137    138    148    147
      4    138    139    149    148
      4    140    141    151    150
      4    141    142    152    151
      4    142    143    153    152
      4    143    144    154    153
      4    144    145    155    154
      4    145    146    156    155
      4    146    147    157    156
      4    147    148    158    157
      4    148    149    159    158
      4    150    151    161    160
      4    151    152    162    161
      4    152    153    163    162
      4    153    154    164    163
      4    154    155    165    164
      4    155    156    166    165
      4    156    157    167    166
      4    157    158    168    167
      4    158    159    169    168
      4    160    161    171    170
      4    161    162    172    171
      4    162    163    173    172
      4    163    164    174    173
      4    164    165    175    174
      4    165    166    176    175
      4    166    167    177    176
      4    167    168    178    177
      4    168    169    179    178
      4    170    171    181    180
      4    171    172    182    181
      4    172    173    183    182
      4    173    174    184    183
      4    174    175    185    184
      4    175    176    186    185
      4    176    177    187    186
      4    177    178    188    187
      4    178    179    189    188
  
CELL_DATA 162
SCALARS Gamma double
LOOKUP_TABLE default
 -0.42547860E+001
 -0.15731063E+003
 -0.14299805E+003
 -0.10775207E+003
 -0.86500484E+002
 -0.77819245E+002
 -0.94564929E+002
 -0.13627156E+003
 -0.58695410E+002
 -0.42547860E+001
 -0.15731063E+003
 -0.14299805E+003
 -0.10775207E+003
 -0.86500484E+002
 -0.77819245E+002
 -0.94564929E+002
 -0.13627156E+003
 -0.58695410E+002
 -0.43611406E+001
 -0.15822917E+003
 -0.14354461E+003
 -0.11008348E+003
 -0.90603113E+002
 -0.82493351E+002
 -0.98867509E+002
 -0.13870013E+003
 -0.60763481E+002
 -0.44759924E+001
 -0.15906434E+003
 -0.14393031E+003
 -0.11214943E+003
 -0.95053052E+002
 -0.87378484E+002
 -0.10317547E+003
 -0.14113658E+003
 -0.62870055E+002
 -0.45978567E+001
 -0.15980132E+003
 -0.14411729E+003
 -0.11440126E+003
 -0.99974593E+002
 -0.92543669E+002
 -0.10746903E+003
 -0.14353039E+003
 -0.65020927E+002
 -0.47285441E+001
 -0.16045162E+003
 -0.14419142E+003
 -0.11671544E+003
 -0.10500911E+003
 -0.97698906E+002
 -0.11170522E+003
 -0.14576098E+003
 -0.67200707E+002
 -0.48659957E+001
 -0.16100426E+003
 -0.14412127E+003
 -0.11908272E+003
 -0.11019902E+003
 -0.10289716E+003
 -0.11562099E+003
 -0.14786472E+003
 -0.69415513E+002
 -0.50095155E+001
 -0.16144714E+003
 -0.14392381E+003
 -0.12148782E+003
 -0.11515820E+003
 -0.10810995E+003
 -0.11885418E+003
 -0.14990370E+003
 -0.71660577E+002
 -0.51494908E+001
 -0.16153997E+003
 -0.14340084E+003
 -0.12383816E+003
 -0.11906972E+003
 -0.11311480E+003
 -0.12183001E+003
 -0.15165461E+003
 -0.73803696E+002
 -0.51346537E+001
 -0.15665929E+003
 -0.13846815E+003
 -0.12263195E+003
 -0.11920674E+003
 -0.11390880E+003
 -0.12094731E+003
 -0.14870566E+003
 -0.73654135E+002
 -0.46587266E+001
 -0.13835549E+003
 -0.12171970E+003
 -0.11050393E+003
 -0.10856606E+003
 -0.10380919E+003
 -0.10921629E+003
 -0.13273300E+003
 -0.66919081E+002
 -0.38266154E+001
 -0.11048758E+003
 -0.96801330E+002
 -0.90032760E+002
 -0.89688879E+002
 -0.85493586E+002
 -0.89374969E+002
 -0.10715760E+003
 -0.54436325E+002
 -0.28342566E+001
 -0.79388323E+002
 -0.69385444E+002
 -0.66057483E+002
 -0.66650169E+002
 -0.63428619E+002
 -0.65857825E+002
 -0.77955958E+002
 -0.39714610E+002
 -0.17915563E+001
 -0.48619196E+002
 -0.42402214E+002
 -0.41280658E+002
 -0.42145739E+002
 -0.40220134E+002
 -0.41313394E+002
 -0.48317845E+002
 -0.24714688E+002
 -0.81856091E+000
 -0.21541708E+002
 -0.18744617E+002
 -0.18631326E+002
 -0.19216129E+002
 -0.18418026E+002
 -0.18723285E+002
 -0.21655029E+002
 -0.11135103E+002
 -0.16983547E+000
 -0.43158211E+001
 -0.37588562E+001
 -0.38076947E+001
 -0.39630860E+001
 -0.38217750E+001
 -0.38456670E+001
 -0.43977668E+001
 -0.22764939E+001
 -0.20358333E-002
 -0.50129804E-001
 -0.43769850E-001
 -0.45116199E-001
 -0.47341231E-001
 -0.45934438E-001
 -0.45782683E-001
 -0.51804677E-001
 -0.27059359E-001
 -0.00000000E+000
 -0.00000000E+000
 -0.00000000E+000
 -0.00000000E+000
 -0.00000000E+000
 -0.00000000E+000
 -0.00000000E+000
 -0.00000000E+000
 -0.00000000E+000
POINT_DATA 190
VECTORS Uconv double
  0.00000000E+000  0.00000000E+000  0.00000000E+000
  0.00000000E+000  0.00000000E+000  0.00000000E+000
  0.00000000E+000  0.00000000E+000  0.00000000E+000
  0.00000000E+000  0.00000000E+000  0.00000000E+000
  0.00000000E+000  0.00000000E+000  0.00000000E+000
  0.00000000E+000  0.00000000E+000  0.00000000E+000
  0.00000000E+000  0.00000000E+000  0.00000000E+000
  0.00000000E+000  0.00000000E+000  0.00000000E+000
  0.00000000E+000  0.00000000E+000  0.00000000E+000
  0.00000000E+000  0.00000000E+000  0.00000000E+000
  0.00000000E+000  0.00000000E+000  0.00000000E+000
  0.00000000E+000  0.00000000E+000  0.00000000E+000
  0.00000000E+000  0.00000000E+000  0.00000000E+000
  0.00000000E+000  0.00000000E+000  0.00000000E+000
  0.00000000E+000  0.00000000E+000  0.00000000E+000
  0.00000000E+000  0.00000000E+000  0.00000000E+000
  0.00000000E+000  0.00000000E+000  0.00000000E+000
  0.00000000E+000  0.00000000E+000  0.00000000E+000
  0.00000000E+000  0.00000000E+000  0.00000000E+000
  0.00000000E+000  0.00000000E+000  0.00000000E+000
  0.17148796E+002 -0.26634156E+000  0.21242148E+000
  0.15943298E+002  0.47468571E+000  0.27287248E+001
  0.15204721E+002  0.23342309E+000  0.18713848E+001
  0.15353600E+002  0.14027434E-001  0.10996328E+001
  0.15636223E+002 -0.16429880E-001  0.33595888E+000
  0.15871964E+002  0.23373116E-002 -0.17260805E+000
  0.15865211E+002  0.58522977E-002 -0.72424693E+000
  0.15551535E+002  0.12922280E+000 -0.16107136E+001
  0.15713452E+002  0.41356792E+000 -0.11933479E+001
  0.16934231E+002  0.60260338E-001 -0.41989804E-001
  0.17146971E+002 -0.27079880E+000  0.21825357E+000
  0.15994934E+002  0.45886123E+000  0.26761524E+001
  0.15171878E+002  0.25201912E+000  0.19029230E+001
  0.15178383E+002  0.19147335E-001  0.12006443E+001
  0.15359653E+002 -0.30759382E-001  0.38883749E+000
  0.15591445E+002 -0.17364034E-001 -0.22460728E+000
  0.15668050E+002  0.64430290E-003 -0.84094591E+000
  0.15496212E+002  0.14780297E+000 -0.16380794E+001
  0.15771381E+002  0.40138508E+000 -0.11174597E+001
  0.16936062E+002  0.34851476E-001 -0.37012645E-002
  0.17148588E+002 -0.27524836E+000  0.22207096E+000
  0.16119451E+002  0.41701928E+000  0.28660731E+001
  0.15164278E+002  0.26716839E+000  0.19099831E+001
  0.15062404E+002  0.23304666E-001  0.12705451E+001
  0.15057337E+002 -0.40442323E-001  0.44013048E+000
  0.15270319E+002 -0.33421385E-001 -0.28945870E+000
  0.15517711E+002 -0.52832829E-002 -0.93505022E+000
  0.15466284E+002  0.16412288E+000 -0.16733558E+001
  0.15836645E+002  0.38420929E+000 -0.10618951E+001
  0.16937246E+002  0.77768178E-002  0.35960525E-001
  0.17143945E+002 -0.27842436E+000  0.22840983E+000
  0.16194374E+002  0.38819447E+000  0.27750459E+001
  0.15186722E+002  0.27690139E+000  0.18879114E+001
  0.14928037E+002  0.33865329E-001  0.13456032E+001
  0.14819606E+002 -0.46482559E-001  0.49377475E+000
  0.15011251E+002 -0.46312186E-001 -0.35596151E+000
  0.15334072E+002 -0.30665481E-002 -0.10456513E+001
  0.15461191E+002  0.17830550E+000 -0.16761240E+001
  0.15898802E+002  0.36516611E+000 -0.96661772E+000
  0.16937617E+002 -0.19201149E-001  0.77518487E-001
  0.17134127E+002 -0.28370139E+000  0.23148345E+000
  0.16277610E+002  0.35201873E+000  0.26756565E+001
  0.15243001E+002  0.27880768E+000  0.18333505E+001
  0.14834206E+002  0.47407625E-001  0.13893502E+001
  0.14589484E+002 -0.46436583E-001  0.51829584E+000
  0.14742430E+002 -0.51821169E-001 -0.40087455E+000
  0.15181476E+002  0.44142871E-002 -0.11352292E+001
  0.15476155E+002  0.19016739E+000 -0.16182438E+001
  0.15994575E+002  0.32652389E+000 -0.10392407E+001
  0.16937018E+002 -0.19695952E-001  0.75633096E-001
  0.17129373E+002 -0.28856443E+000  0.23535293E+000
  0.16351375E+002  0.31894935E+000  0.25304862E+001
  0.15335292E+002  0.27353929E+000  0.17437352E+001
  0.14822414E+002  0.58842914E-001  0.13902863E+001
  0.14380817E+002 -0.34760610E-001  0.54854017E+000
  0.14496372E+002 -0.45346845E-001 -0.45570614E+000
  0.15087034E+002  0.15770912E-001 -0.11945757E+001
  0.15535476E+002  0.19607431E+000 -0.15578934E+001
  0.16072627E+002  0.29561011E+000 -0.96534994E+000
  0.16935452E+002 -0.34771218E-001  0.11193858E+000
  0.17120481E+002 -0.28664438E+000  0.24088819E+000
  0.16411276E+002  0.28296238E+000  0.23675786E+001
  0.15463422E+002  0.25670757E+000  0.16199867E+001
  0.14878573E+002  0.68492644E-001  0.13490158E+001
  0.14283246E+002 -0.15692779E-001  0.55731199E+000
  0.14361308E+002 -0.28994665E-001 -0.48974640E+000
  0.15073425E+002  0.27977521E-001 -0.12079129E+001
  0.15628799E+002  0.19148555E+000 -0.14642539E+001
  0.16162260E+002  0.25567526E+000 -0.94102990E+000
  0.16933207E+002 -0.47453590E-001  0.14855372E+000
  0.17113679E+002 -0.28955858E+000  0.24453116E+000
  0.16443944E+002  0.25625594E+000  0.19589270E+001
  0.15622074E+002  0.22590746E+000  0.14489207E+001
  0.15034234E+002  0.69779606E-001  0.12486111E+001
  0.13990118E+002 -0.44797569E-001  0.53842574E+000
  0.14084342E+002 -0.45262822E-001 -0.49352939E+000
  0.15160554E+002  0.34696639E-001 -0.11617874E+001
  0.15754458E+002  0.17646900E+000 -0.13387012E+001
  0.16237045E+002  0.22121668E+000 -0.86755290E+000
  0.16927511E+002 -0.20358766E-001  0.20971293E+000
  0.17119130E+002 -0.28469613E+000 -0.62469825E+000
  0.16482652E+002  0.22189684E+000  0.16336777E+001
  0.15810988E+002  0.18212078E+000  0.12622514E+001
  0.15289778E+002  0.56435218E-001  0.11062546E+001
  0.14338349E+002 -0.19681026E-001  0.47925483E+000
  0.14382155E+002 -0.21340108E-001 -0.46151104E+000
  0.15353665E+002  0.33103619E-001 -0.10632143E+001
  0.15908377E+002  0.14791187E+000 -0.11852384E+001
  0.16314868E+002  0.18363397E+000 -0.82267281E+000
  0.16925272E+002 -0.42573360E-001  0.23769441E+000
  0.17112277E+002 -0.28692255E+000 -0.64249766E+000
  0.16549931E+002  0.15679788E+000  0.12552124E+001
  0.16021445E+002  0.12557646E+000  0.10528859E+001
  0.15633705E+002  0.24158917E-001  0.88895374E+000
  0.14850758E+002 -0.26868029E-001  0.39207784E+000
  0.14850363E+002 -0.25501049E-001 -0.38607342E+000
  0.15633151E+002  0.15632897E-001 -0.89764561E+000
  0.16097006E+002  0.10510702E+000 -0.10451097E+001
  0.16385267E+002  0.15369761E+000 -0.36356498E+000
  0.16921932E+002 -0.58586593E-001  0.26697064E+000
  0.17103793E+002 -0.28658711E+000 -0.66214329E+000
  0.16643309E+002  0.97529628E-001  0.10240801E+001
  0.16245517E+002  0.55233904E-001  0.83039266E+000
  0.16035339E+002 -0.29298662E-001  0.63399029E+000
  0.15483776E+002 -0.68764795E-001  0.27093332E+000
  0.15447963E+002 -0.61389249E-001 -0.28298523E+000
  0.15976243E+002 -0.20143286E-001 -0.68867506E+000
  0.16291830E+002  0.53625053E-001 -0.86442066E+000
  0.16500233E+002  0.10065643E+000 -0.30645154E+000
  0.16917739E+002 -0.71365098E-001  0.29709592E+000
  0.17096724E+002 -0.28968986E+000 -0.68018603E+000
  0.16694560E+002  0.24121596E-001  0.72890216E+000
  0.16475504E+002 -0.22188323E-001  0.60677593E+000
  0.16457789E+002 -0.99876248E-001  0.36151539E+000
  0.16161915E+002 -0.14441284E+000  0.13654685E+000
  0.16098903E+002 -0.12815258E+000 -0.15787722E+000
  0.16350051E+002 -0.76064149E-001 -0.45422017E+000
  0.16490588E+002 -0.48224649E-002 -0.65511465E+000
  0.16521980E+002  0.83137082E-001 -0.28984844E+000
  0.16912520E+002 -0.10223692E+000  0.37562340E+000
  0.17091567E+002 -0.29720007E+000 -0.70003637E+000
  0.16756255E+002 -0.43792541E-001  0.41429608E+000
  0.16703227E+002 -0.10308077E+000  0.37695349E+000
  0.16866758E+002 -0.18441346E+000  0.11143145E+000
  0.16805030E+002 -0.23480752E+000  0.90708854E-002
  0.16724915E+002 -0.21517061E+000 -0.31894657E-001
  0.16722962E+002 -0.14257998E+000 -0.22182880E+000
  0.16700516E+002 -0.70851721E-001 -0.47041056E+000
  0.16567309E+002  0.55893329E-001 -0.29825955E+000
  0.16906905E+002 -0.10837771E+000  0.39758348E+000
  0.17081808E+002 -0.29698825E+000 -0.72003035E+000
  0.16808758E+002 -0.10207429E+000  0.12665496E+000
  0.16923794E+002 -0.18399717E+000  0.16012952E+000
  0.17226052E+002 -0.26629842E+000 -0.13652177E+000
  0.17347555E+002 -0.32546547E+000 -0.10546335E+000
  0.17261976E+002 -0.30131042E+000  0.87830775E-001
  0.17066618E+002 -0.20970769E+000  0.10500671E-001
  0.16896953E+002 -0.13763597E+000 -0.25589581E+000
  0.16615685E+002  0.27779639E-001 -0.30631739E+000
  0.16900326E+002 -0.11249223E+000  0.42255992E+000
  0.17072375E+002 -0.29837601E+000 -0.74259546E+000
  0.16791739E+002 -0.14718272E+000 -0.40979126E+000
  0.17131083E+002 -0.26324579E+000 -0.53890760E-001
  0.17523903E+002 -0.33920092E+000 -0.34900320E+000
  0.17750766E+002 -0.39762044E+000 -0.19124650E+000
  0.17671795E+002 -0.37219176E+000  0.17678868E+000
  0.17351200E+002 -0.27370321E+000  0.21167291E+000
  0.17085761E+002 -0.20453833E+000 -0.50827966E-001
  0.16644288E+002  0.12347963E-001 -0.28956651E+000
  0.16892279E+002 -0.12230891E+000  0.47581654E+000
  0.17062343E+002 -0.29981933E+000 -0.76147902E+000
  0.16861794E+002 -0.19558106E+000 -0.56530739E+000
  0.17318700E+002 -0.33278979E+000 -0.24456922E+000
  0.17745382E+002 -0.39628194E+000 -0.51485976E+000
  0.18010390E+002 -0.44572787E+000 -0.24488676E+000
  0.17937016E+002 -0.42435562E+000  0.23246469E+000
  0.17575413E+002 -0.32690850E+000  0.37639717E+000
  0.17261502E+002 -0.25888832E+000  0.14320697E+000
  0.16686840E+002 -0.13953436E-001 -0.28934212E+000
  0.16884098E+002 -0.12542385E+000  0.49885329E+000
  0.17051383E+002 -0.30882937E+000 -0.77638334E+000
  0.16901296E+002 -0.20572076E+000 -0.64578527E+000
  0.17488124E+002 -0.38408039E+000 -0.41920341E+000
  0.17899682E+002 -0.43580775E+000 -0.63189307E+000
  0.18137454E+002 -0.46910745E+000 -0.26858403E+000
  0.18078749E+002 -0.45095966E+000  0.26108034E+000
  0.17739131E+002 -0.36703424E+000  0.49889337E+000
  0.17423483E+002 -0.31465280E+000  0.31996485E+000
  0.16727086E+002 -0.37787271E-001 -0.28312981E+000
  0.16874959E+002 -0.12717951E+000  0.52347606E+000
