<?xml version="1.0"?>
<VTKFile type="PolyData" version="0.1" byte_order="LittleEndian">
  <PolyData>
    <Piece NumberOfPoints="     10" NumberOfVerts="  0" NumberOfLines="      9"
           NumberOfStrips="  0" NumberOfPolys="      0">
      <Points>
        <DataArray type="Float32" NumberOfComponents="3" format="ascii">
                       0.14977                       0.11479                     101.06358
                       0.69236                       2.39037                     101.03853
                       1.23561                       4.66582                     101.01265
                       1.77932                       6.94115                     100.98624
                       2.32338                       9.21639                     100.96019
                       2.87245                      11.49132                     100.95674
                       3.41701                      13.76643                     100.93440
                       3.96406                      16.04093                     100.91071
                       4.50707                      18.31647                     100.89974
                       5.04989                      20.59203                     100.89330
        </DataArray>
      </Points>
      <PointData>
        <DataArray type="Float32" Name="TranslationalVelocity" NumberOfComponents="3" format="ascii">
                       1.45078                       0.21801                      -0.00134
                      -2.67624                       1.20122                      -0.16080
                      -6.79289                       2.18315                      -0.32597
                     -10.90110                       3.16390                      -0.49042
                     -15.00268                       4.14386                      -0.64814
                     -19.09264                       5.13257                      -0.79359
                     -23.18603                       6.11184                      -0.92086
                     -27.27791                       7.09566                      -1.02822
                     -31.37158                       8.07285                      -1.11326
                     -35.46794                       9.05053                      -1.17616
        </DataArray>
        <DataArray type="Float32" Name="RotationalVelocity" NumberOfComponents="3" format="ascii">
                      -0.06052                       0.03037                       1.81696
                      -0.06136                       0.04189                       1.81272
                      -0.05998                       0.05347                       1.80890
                      -0.05639                       0.06452                       1.80575
                      -0.05075                       0.07508                       1.80325
                      -0.03437                       0.09494                       1.80023
                      -0.02426                       0.10437                       1.79970
                      -0.01335                       0.11356                       1.79983
                      -0.00236                       0.12259                       1.80060
                       0.00863                       0.13156                       1.80200
        </DataArray>
        <DataArray type="Float32" Name="TranslationalAcceleration" NumberOfComponents="3" format="ascii">
                      10.11224                      -5.49624                      -0.06397
                       9.67337                      -6.51659                       1.27846
                       9.28986                      -7.20813                       2.69189
                       8.89833                      -7.89771                       4.07728
                       8.50195                      -8.58950                       5.36724
                       9.46418                      -2.61145                       6.89108
                       9.06857                      -3.34391                       7.32990
                       8.67049                      -4.09213                       7.68820
                       8.28705                      -4.80691                       7.68316
                       7.91328                      -5.52643                       6.99433
        </DataArray>
        <DataArray type="Float32" Name="OrientationX" NumberOfComponents="3" format="ascii">
                       0.00089                       0.01501                       0.99989
                       0.00111                       0.01721                       0.99985
                       0.00125                       0.01878                       0.99982
                       0.00130                       0.01972                       0.99980
                       0.00128                       0.02007                       0.99980
                       0.00100                       0.01886                       0.99982
                       0.00074                       0.01730                       0.99985
                      -0.00035                       0.00452                       0.99999
                       0.00018                       0.00565                       0.99998
                       0.00104                      -0.00689                       0.99998
        </DataArray>
        <DataArray type="Float32" Name="OrientationY" NumberOfComponents="3" format="ascii">
                       0.97301                      -0.23074                       0.00260
                       0.97301                      -0.23073                       0.00289
                       0.97301                      -0.23073                       0.00312
                       0.97301                      -0.23073                       0.00328
                       0.97301                      -0.23074                       0.00338
                       0.97301                      -0.23074                       0.00338
                       0.97301                      -0.23073                       0.00328
                       0.97435                      -0.22503                       0.00136
                       0.97430                      -0.22525                       0.00109
                       0.96685                      -0.25533                      -0.00277
        </DataArray>
        <DataArray type="Float32" Name="OrientationZ" NumberOfComponents="3" format="ascii">
                       0.23075                       0.97290                      -0.01481
                       0.23075                       0.97287                      -0.01700
                       0.23075                       0.97284                      -0.01856
                       0.23075                       0.97282                      -0.01949
                       0.23076                       0.97281                      -0.01982
                       0.23076                       0.97283                      -0.01859
                       0.23075                       0.97286                      -0.01701
                       0.22503                       0.97434                      -0.00433
                       0.22525                       0.97428                      -0.00555
                       0.25534                       0.96683                       0.00640
        </DataArray>
      </PointData>
      <Lines>
        <DataArray type="Int32" Name="connectivity" format="ascii">
      0      1
      1      2
      2      3
      3      4
      4      5
      5      6
      6      7
      7      8
      8      9
        </DataArray>
        <DataArray type="Int32" Name="offsets" format="ascii">
      2
      4
      6
      8
     10
     12
     14
     16
     18
        </DataArray>
      </Lines>
    </Piece>
  </PolyData>
</VTKFile>
