# vtk DataFile Version 2.0
BldPointCP.BldB
ASCII
 
DATASET POLYDATA
POINTS 9 double
  0.35826724E+001  0.10953893E+002  0.10628661E+003
  0.85413447E+001  0.26862840E+002  0.94523888E+002
  0.12546870E+002  0.39599476E+002  0.82382478E+002
  0.15240303E+002  0.48116347E+002  0.70115465E+002
  0.16090978E+002  0.50783465E+002  0.58085370E+002
  0.15226685E+002  0.48023023E+002  0.46071039E+002
  0.12529998E+002  0.39502108E+002  0.33790900E+002
  0.85085011E+001  0.26817585E+002  0.21588561E+002
  0.34672038E+001  0.10924886E+002  0.98393194E+001
  
POINT_DATA 9
SCALARS Gamma_LL double
LOOKUP_TABLE default
  0.11372478E+003
  0.53426427E+002
  0.20225088E+002
  0.28672640E+002
  0.51117529E+002
  0.43943908E+002
  0.30757073E+002
  0.43294595E+002
  0.50780150E+002
VECTORS Vind_CP double
  0.22745603E-001 -0.93987840E-001 -0.47358175E+000
 -0.60430792E-001 -0.11050351E+000 -0.16774776E+000
 -0.29029410E-001 -0.66926760E-001 -0.10501005E-001
 -0.63152099E-001 -0.26742136E+000 -0.31260783E-001
 -0.14400454E+000 -0.54557291E+000  0.17752476E-001
 -0.10940139E+000 -0.40083933E+000  0.11307907E+000
 -0.56250830E-001 -0.16177538E+000  0.90616304E-001
 -0.61398915E-001 -0.16182512E+000  0.15798351E+000
 -0.10035248E+000 -0.65911350E-001  0.13178250E+000
VECTORS Vtot_CP double
  0.34975401E+002 -0.67110724E+001  0.28783032E+000
  0.64685450E+002 -0.16356537E+002  0.53403614E+000
  0.88287965E+002 -0.24581680E+002 -0.37774165E+000
  0.10420800E+003 -0.28957979E+002 -0.36516605E+000
  0.10923581E+003 -0.29493985E+002  0.15253847E+000
  0.10398927E+003 -0.27791600E+002  0.54181736E+000
  0.88261417E+002 -0.23265377E+002  0.80722916E+000
  0.65354411E+002 -0.15843516E+002  0.52739233E+000
  0.36778110E+002 -0.63136663E+001  0.11562056E+000
VECTORS Vstr_CP double
 -0.17752655E+002  0.66170846E+001 -0.76141208E+000
 -0.47545881E+002  0.16246033E+002 -0.70178391E+000
 -0.71116994E+002  0.24514753E+002  0.36724064E+000
 -0.87071154E+002  0.28690558E+002  0.33390527E+000
 -0.92179812E+002  0.28948412E+002 -0.13478600E+000
 -0.86898668E+002  0.27390761E+002 -0.42873829E+000
 -0.71117668E+002  0.23103602E+002 -0.71661286E+000
 -0.48215810E+002  0.15681691E+002 -0.36940882E+000
 -0.19678462E+002  0.62477550E+001  0.16161942E-001
VECTORS Vwnd_CP double
  0.17200000E+002  0.00000000E+000  0.00000000E+000
  0.17200000E+002  0.00000000E+000  0.00000000E+000
  0.17200000E+002  0.00000000E+000  0.00000000E+000
  0.17200000E+002  0.00000000E+000  0.00000000E+000
  0.17200000E+002  0.00000000E+000  0.00000000E+000
  0.17200000E+002  0.00000000E+000  0.00000000E+000
  0.17200000E+002  0.00000000E+000  0.00000000E+000
  0.17200000E+002  0.00000000E+000  0.00000000E+000
  0.17200000E+002  0.00000000E+000  0.00000000E+000
VECTORS Tangent double
  0.83609361E+000 -0.54858638E+000  0.67640868E-003
  0.95054498E+000 -0.31058153E+000 -0.18332047E-002
  0.95505898E+000 -0.29641279E+000 -0.13387555E-002
  0.95470538E+000 -0.29755261E+000 -0.28333706E-003
  0.95200809E+000 -0.30607285E+000 -0.78413422E-004
  0.95301442E+000 -0.30292485E+000 -0.20857792E-003
  0.95421605E+000 -0.29911822E+000 -0.96685933E-004
  0.95305463E+000 -0.30279840E+000  0.80497088E-004
  0.95273029E+000 -0.30379447E+000  0.37312915E-002
VECTORS Normal double
  0.29109174E+000  0.44469369E+000  0.84706146E+000
  0.19946352E+000  0.60591907E+000  0.77011452E+000
  0.21038261E+000  0.67466936E+000  0.70750294E+000
  0.26836931E+000  0.86065796E+000  0.43271907E+000
  0.30606827E+000  0.95199522E+000 -0.52268982E-002
  0.27234536E+000  0.85711110E+000 -0.43725114E+000
  0.21235330E+000  0.67765513E+000 -0.70405228E+000
  0.19401654E+000  0.61046077E+000 -0.76791616E+000
  0.15871986E+000  0.48721434E+000 -0.85873756E+000
VECTORS Orth double
  0.46498718E+000  0.70802578E+000 -0.53149452E+000
  0.23807257E+000  0.73239415E+000 -0.63790302E+000
  0.20880970E+000  0.67598869E+000 -0.70670914E+000
  0.12851283E+000  0.41319527E+000 -0.90152877E+000
 -0.16744608E-002 -0.49520495E-002 -0.99998634E+000
 -0.13263301E+000 -0.41664984E+000 -0.89933942E+000
 -0.21066039E+000 -0.67179745E+000 -0.71014814E+000
 -0.23247464E+000 -0.73188167E+000 -0.64055036E+000
 -0.25906178E+000 -0.81873751E+000 -0.51240207E+000
