# vtk DataFile Version 2.0
Sgmt
ASCII
 
DATASET POLYDATA
POINTS 990 double
  0.11418429E+000  0.22093926E-001  0.11318135E+003
 -0.20240606E+002 -0.33307120E+001  0.10107114E+003
 -0.34567231E+002 -0.57131482E+001  0.88854933E+002
 -0.46454326E+002 -0.77206339E+001  0.76545984E+002
 -0.52416842E+002 -0.87356498E+001  0.64294175E+002
 -0.52423131E+002 -0.87444288E+001  0.52051651E+002
 -0.46461914E+002 -0.77410509E+001  0.39801460E+002
 -0.34571234E+002 -0.57170278E+001  0.27484274E+002
 -0.20279299E+002 -0.33387951E+001  0.15240213E+002
  0.19086138E-003  0.48479743E-004  0.30001624E+001
 -0.43259264E+001 -0.70907234E+000  0.11315284E+003
 -0.20969414E+002  0.10209304E+001  0.10107128E+003
 -0.35088598E+002 -0.26604837E+001  0.88858737E+002
 -0.46853254E+002 -0.52977881E+001  0.76543870E+002
 -0.52772736E+002 -0.65081262E+001  0.64292288E+002
 -0.52785166E+002 -0.64734697E+001  0.52052613E+002
 -0.46867769E+002 -0.51726288E+001  0.39798736E+002
 -0.35113373E+002 -0.23345814E+001  0.27486040E+002
 -0.20998786E+002  0.11033145E+001  0.15241362E+002
 -0.72648538E+000  0.44409876E+001  0.30014818E+001
 -0.41900890E+001 -0.63565485E+000  0.11315444E+003
 -0.20787061E+002  0.14034592E+001  0.10106125E+003
 -0.34968188E+002 -0.20138111E+001  0.88833940E+002
 -0.46805069E+002 -0.44289099E+001  0.76532657E+002
 -0.52758872E+002 -0.55253227E+001  0.64278679E+002
 -0.52768787E+002 -0.54887002E+001  0.52031149E+002
 -0.46816608E+002 -0.43009031E+001  0.39775403E+002
 -0.34990999E+002 -0.16887888E+001  0.27475667E+002
 -0.20810165E+002  0.14870036E+001  0.15237334E+002
 -0.47699851E+000  0.44521107E+001  0.30038069E+001
 -0.40507999E+001 -0.56026543E+000  0.11315578E+003
 -0.20594498E+002  0.17842223E+001  0.10104661E+003
 -0.34831813E+002 -0.13686896E+001  0.88808384E+002
 -0.46732743E+002 -0.35607419E+001  0.76520139E+002
 -0.52715594E+002 -0.45431358E+001  0.64265161E+002
 -0.52723406E+002 -0.45046894E+001  0.52013242E+002
 -0.46741062E+002 -0.34298249E+001  0.39757424E+002
 -0.34851936E+002 -0.10440070E+001  0.27470256E+002
 -0.20611999E+002  0.18688532E+001  0.15235511E+002
 -0.22699600E+000  0.44618122E+001  0.30060373E+001
 -0.39076674E+001 -0.48373073E+000  0.11315764E+003
 -0.20400388E+002  0.21632005E+001  0.10103767E+003
 -0.34680209E+002 -0.72529232E+000  0.88783182E+002
 -0.46636742E+002 -0.26939704E+001  0.76506416E+002
 -0.52642448E+002 -0.35626148E+001  0.64252320E+002
 -0.52648451E+002 -0.35225273E+001  0.51998663E+002
 -0.46642191E+002 -0.25601747E+001  0.39744488E+002
 -0.34697270E+002 -0.40040983E+000  0.27468685E+002
 -0.20412595E+002  0.22488910E+001  0.15226249E+002
  0.23628209E-001  0.44702250E+001  0.30080169E+001
 -0.37604467E+001 -0.40606981E+000  0.11315995E+003
 -0.20189249E+002  0.25413613E+001  0.10101699E+003
 -0.34513565E+002 -0.83955179E-001  0.88758736E+002
 -0.46516274E+002 -0.18294714E+001  0.76491301E+002
 -0.52538320E+002 -0.25850459E+001  0.64239760E+002
 -0.52542878E+002 -0.25435205E+001  0.51988056E+002
 -0.46519527E+002 -0.16929087E+001  0.39736886E+002
 -0.34527394E+002  0.24151713E+000  0.27470673E+002
 -0.20197172E+002  0.26280375E+001  0.15227118E+002
  0.27493031E+000  0.44774463E+001  0.30095715E+001
 -0.36088865E+001 -0.32736305E+000  0.11316251E+003
 -0.19969755E+002  0.29180980E+001  0.10099429E+003
 -0.34333026E+002  0.55531192E+000  0.88736490E+002
 -0.46373102E+002 -0.96771629E+000  0.76476066E+002
 -0.52405083E+002 -0.16112890E+001  0.64227997E+002
 -0.52408451E+002 -0.15685784E+001  0.51981235E+002
 -0.46374768E+002 -0.82861187E+000  0.39733829E+002
 -0.34343426E+002  0.88153445E+000  0.27475134E+002
 -0.19973821E+002  0.30055078E+001  0.15228768E+002
  0.52721020E+000  0.44837267E+001  0.30100876E+001
 -0.34527921E+001 -0.24775759E+000  0.11316487E+003
 -0.19741305E+002  0.32931368E+001  0.10097486E+003
 -0.34139378E+002  0.11924080E+001  0.88717545E+002
 -0.46209421E+002 -0.10900994E+000  0.76462085E+002
 -0.52248672E+002 -0.64133900E+000  0.64217853E+002
 -0.52251107E+002 -0.59777667E+000  0.51977658E+002
 -0.46210200E+002  0.32325897E-001  0.39734143E+002
 -0.34146640E+002  0.15194651E+001  0.27480832E+002
 -0.19743103E+002  0.33812752E+001  0.15230608E+002
  0.77971669E+000  0.44885760E+001  0.30109160E+001
 -0.32918889E+001 -0.16750489E+000  0.11316634E+003
 -0.19504783E+002  0.36667041E+001  0.10095929E+003
 -0.33932829E+002  0.18271532E+001  0.88702658E+002
 -0.46027408E+002  0.74646212E+000  0.76451036E+002
 -0.52072800E+002  0.32476105E+000  0.64210434E+002
 -0.52074604E+002  0.36875478E+000  0.51976567E+002
 -0.46028311E+002  0.88967733E+000  0.39736704E+002
 -0.33938207E+002  0.21550817E+001  0.27486668E+002
 -0.19505168E+002  0.37547316E+001  0.15233099E+002
  0.10324245E+001  0.44920578E+001  0.30115531E+001
 -0.31258695E+001 -0.86791152E-001  0.11316675E+003
 -0.19260865E+002  0.40382394E+001  0.10094519E+003
 -0.33717863E+002  0.24598234E+001  0.88695649E+002
 -0.45828443E+002  0.15984826E+001  0.76443273E+002
 -0.51879823E+002  0.12869425E+001  0.64206099E+002
 -0.51881236E+002  0.13310112E+001  0.51977343E+002
 -0.45829660E+002  0.17430129E+001  0.39740748E+002
 -0.33729106E+002  0.27892113E+001  0.27480449E+002
 -0.19260649E+002  0.41268652E+001  0.15235021E+002
  0.12851336E+001  0.44941183E+001  0.30121932E+001
 -0.29556664E+001 -0.58497340E-002  0.11316656E+003
 -0.19011035E+002  0.44087921E+001  0.10093283E+003
 -0.33503962E+002  0.30922784E+001  0.88704970E+002
 -0.45614932E+002  0.24479965E+001  0.76438773E+002
 -0.51671628E+002  0.22461399E+001  0.64204257E+002
 -0.51672430E+002  0.22901804E+001  0.51978439E+002
 -0.45614703E+002  0.25929585E+001  0.39744490E+002
 -0.33502440E+002  0.34208387E+001  0.27479029E+002
 -0.19009037E+002  0.44969788E+001  0.15240789E+002
  0.15377487E+001  0.44947044E+001  0.30131099E+001
  0.11418429E+000  0.22093926E-001  0.11318135E+003
  0.72920539E+001  0.19239904E+002  0.10086050E+003
  0.12417150E+002  0.32883308E+002  0.88723341E+002
  0.16722344E+002  0.44271104E+002  0.76514429E+002
  0.18832554E+002  0.49857354E+002  0.64217275E+002
  0.18822986E+002  0.49821984E+002  0.51960026E+002
  0.16701883E+002  0.44199840E+002  0.39683786E+002
  0.12407733E+002  0.32838265E+002  0.27440545E+002
  0.72660396E+001  0.19224847E+002  0.15261969E+002
  0.19086138E-003  0.48479743E-004  0.30001624E+001
  0.29621768E+001 -0.34619968E+001  0.11318842E+003
  0.11402092E+002  0.17635060E+002  0.10085615E+003
  0.15317136E+002  0.31796718E+002  0.88721294E+002
  0.19025528E+002  0.43419824E+002  0.76514778E+002
  0.20942075E+002  0.49058324E+002  0.64217415E+002
  0.20970617E+002  0.48999788E+002  0.51959772E+002
  0.19137535E+002  0.43289282E+002  0.39683190E+002
  0.15614301E+002  0.31632950E+002  0.27440768E+002
  0.11472055E+002  0.17625023E+002  0.15262432E+002
  0.42094323E+001 -0.15911179E+001  0.30219819E+001
  0.30486783E+001 -0.35159263E+001  0.11318321E+003
  0.11884942E+002  0.17430612E+002  0.10086003E+003
  0.16054179E+002  0.31498342E+002  0.88718443E+002
  0.19969908E+002  0.43042175E+002  0.76503808E+002
  0.21994943E+002  0.48661701E+002  0.64216265E+002
  0.22023963E+002  0.48611329E+002  0.51963356E+002
  0.20083186E+002  0.42925908E+002  0.39693089E+002
  0.16349927E+002  0.31336045E+002  0.27451427E+002
  0.11958927E+002  0.17414144E+002  0.15264651E+002
  0.43509765E+001 -0.16662723E+001  0.30254670E+001
  0.31363255E+001 -0.35683276E+001  0.11317909E+003
  0.12365847E+002  0.17221057E+002  0.10086840E+003
  0.16786042E+002  0.31190073E+002  0.88715500E+002
  0.20906858E+002  0.42652487E+002  0.76493141E+002
  0.23040747E+002  0.48252424E+002  0.64215428E+002
  0.23070935E+002  0.48209614E+002  0.51966132E+002
  0.21022582E+002  0.42549831E+002  0.39701741E+002
  0.17080515E+002  0.31029858E+002  0.27460560E+002
  0.12442566E+002  0.17198657E+002  0.15265371E+002
  0.44914616E+001 -0.17408998E+001  0.30238051E+001
  0.32252791E+001 -0.36192620E+001  0.11317610E+003
  0.12844526E+002  0.17006258E+002  0.10088066E+003
  0.17512682E+002  0.30872636E+002  0.88712875E+002
  0.21837037E+002  0.42252780E+002  0.76484023E+002
  0.24080022E+002  0.47832242E+002  0.64215500E+002
  0.24111601E+002  0.47795518E+002  0.51967862E+002
  0.21955494E+002  0.42161351E+002  0.39708931E+002
  0.17805901E+002  0.30714451E+002  0.27468046E+002
  0.12922889E+002  0.16978587E+002  0.15264318E+002
  0.46308823E+001 -0.18150119E+001  0.30215958E+001
  0.33156803E+001 -0.36687709E+001  0.11317437E+003
  0.13320667E+002  0.16785965E+002  0.10089549E+003
  0.18233907E+002  0.30546489E+002  0.88710558E+002
  0.22759843E+002  0.41842127E+002  0.76476013E+002
  0.25111755E+002  0.47399135E+002  0.64215544E+002
  0.25145520E+002  0.47368665E+002  0.51968497E+002
  0.22881745E+002  0.41760924E+002  0.39714118E+002
  0.18526035E+002  0.30390239E+002  0.27473500E+002
  0.13399743E+002  0.16753798E+002  0.15261486E+002
  0.47692209E+001 -0.18886125E+001  0.30190023E+001
  0.34077229E+001 -0.37168559E+001  0.11317352E+003
  0.13793864E+002  0.16559866E+002  0.10091105E+003
  0.18949475E+002  0.30212056E+002  0.88708470E+002
  0.23675745E+002  0.41421786E+002  0.76469875E+002
  0.26135570E+002  0.46952541E+002  0.64215987E+002
  0.26171639E+002  0.46927332E+002  0.51968139E+002
  0.23800762E+002  0.41348222E+002  0.39717476E+002
  0.19240604E+002  0.30057118E+002  0.27477147E+002
  0.13872909E+002  0.16524046E+002  0.15257091E+002
  0.49064348E+001 -0.19616924E+001  0.30162194E+001
  0.35015428E+001 -0.37634831E+001  0.11317328E+003
  0.14263149E+002  0.16326493E+002  0.10092383E+003
  0.19659119E+002  0.29869790E+002  0.88706416E+002
  0.24584301E+002  0.40990903E+002  0.76465189E+002
  0.27149998E+002  0.46489527E+002  0.64216085E+002
  0.27188057E+002  0.46468214E+002  0.51967624E+002
  0.24711593E+002  0.40922084E+002  0.39719706E+002
  0.19949271E+002  0.29715079E+002  0.27479323E+002
  0.14342042E+002  0.16288924E+002  0.15251779E+002
  0.50424283E+001 -0.20342407E+001  0.30135553E+001
[...]
CELL_DATA 1791
SCALARS Gamma double
LOOKUP_TABLE default
 -0.51346537E+001
  0.51346537E+001
 -0.15665929E+003
  0.15152463E+003
 -0.13846815E+003
 -0.18191138E+002
 -0.12263195E+003
 -0.15836197E+002
 -0.11920674E+003
 -0.34252144E+001
 -0.11390880E+003
 -0.52979378E+001
 -0.12094731E+003
  0.70385114E+001
 -0.14870566E+003
  0.27758347E+002
 -0.73654135E+002
 -0.75051524E+002
 -0.73654135E+002
  0.00000000E+000
  0.51346537E+001
  0.00000000E+000
  0.15152463E+003
  0.00000000E+000
 -0.18191138E+002
  0.00000000E+000
 -0.15836197E+002
  0.00000000E+000
 -0.34252144E+001
  0.00000000E+000
 -0.52979378E+001
  0.00000000E+000
  0.70385114E+001
  0.00000000E+000
  0.27758347E+002
  0.00000000E+000
 -0.75051524E+002
 -0.73654135E+002
  0.47592712E+000
  0.46587266E+001
  0.18303795E+002
  0.13369677E+003
  0.16748446E+002
 -0.16635789E+002
  0.12128025E+002
 -0.11215776E+002
  0.10640676E+002
 -0.19378658E+001
  0.10099609E+002
 -0.47568714E+001
  0.11731022E+002
  0.54070988E+001
  0.15972660E+002
  0.23516710E+002
  0.67350539E+001
 -0.65813918E+002
 -0.66919081E+002
  0.83211125E+000
  0.38266154E+001
  0.27867914E+002
  0.10666096E+003
  0.24918373E+002
 -0.13686248E+002
  0.20471167E+002
 -0.67685699E+001
  0.18877183E+002
 -0.34388132E+000
  0.18315604E+002
 -0.41952929E+001
  0.19841319E+002
  0.38813838E+001
  0.25575396E+002
  0.17782634E+002
  0.12482756E+002
 -0.52721278E+002
 -0.54436325E+002
  0.99235881E+000
  0.28342566E+001
  0.31099255E+002
  0.76554066E+002
  0.27415886E+002
 -0.10002878E+002
  0.23975277E+002
 -0.33279609E+001
  0.23038709E+002
  0.59268608E+000
  0.22064967E+002
 -0.32215504E+001
  0.23517145E+002
  0.24292057E+001
  0.29201645E+002
  0.12098133E+002
  0.14721714E+002
 -0.38241348E+002
 -0.39714610E+002
  0.10427003E+001
  0.17915563E+001
  0.30769127E+002
  0.46827639E+002
  0.26983230E+002
 -0.62169816E+001
  0.24776825E+002
 -0.11215561E+001
  0.24504431E+002
  0.86508056E+000
  0.23208485E+002
 -0.19256050E+001
  0.24544431E+002
  0.10932602E+001
  0.29638113E+002
  0.70044515E+001
  0.14999923E+002
 -0.23603158E+002
 -0.24714688E+002
  0.97299534E+000
  0.81856091E+000
  0.27077488E+002
  0.20723147E+002
  0.23657597E+002
 -0.27970910E+001
  0.22649332E+002
 -0.11329133E+000
  0.22929610E+002
  0.58480337E+000
  0.21802107E+002
 -0.79810264E+000
  0.22590109E+002
  0.30525857E+000
  0.26662817E+002
  0.29317436E+001
  0.13579584E+002
 -0.10519925E+002
 -0.11135103E+002
  0.64872544E+000
  0.16983547E+000
  0.17225887E+002
  0.41459856E+001
  0.14985761E+002
 -0.55696483E+000
  0.14823631E+002
  0.48838483E-001
  0.15253043E+002
  0.15539132E+000
  0.14596251E+002
 -0.14131106E+000
  0.14877618E+002
  0.23892066E-001
  0.17257262E+002
  0.55209979E+000
  0.88586096E+001
 -0.21212729E+001
 -0.22764939E+001
  0.16779964E+000
  0.20358333E-002
  0.42656912E+001
  0.48093971E-001
  0.37150864E+001
 -0.63599538E-002
  0.37625785E+001
  0.13463489E-002
  0.39157448E+001
  0.22250323E-002
  0.37758405E+001
 -0.14067937E-002
  0.37998844E+001
 -0.15175484E-003
  0.43459621E+001
  0.60219938E-002
  0.22494345E+001
 -0.24745317E-001
 -0.27059359E-001
  0.20358333E-002
  0.00000000E+000
  0.00000000E+000
  0.50129804E-001
 -0.00000000E+000
  0.00000000E+000
  0.43769850E-001
 -0.00000000E+000
  0.00000000E+000
  0.45116199E-001
 -0.00000000E+000
  0.00000000E+000
  0.47341231E-001
 -0.00000000E+000
  0.00000000E+000
  0.45934438E-001
 -0.00000000E+000
  0.00000000E+000
  0.45782683E-001
 -0.00000000E+000
  0.00000000E+000
  0.51804677E-001
 -0.00000000E+000
  0.00000000E+000
  0.27059359E-001
 -0.00000000E+000
  0.00000000E+000
 -0.00000000E+000
  0.11260791E+003
 -0.11260791E+003
  0.55118972E+002
  0.57488939E+002
  0.23710119E+002
  0.31408853E+002
  0.36574781E+002
 -0.12864662E+002
  0.57627379E+002
 -0.21052598E+002
  0.49673087E+002
  0.79542925E+001
  0.36249274E+002
  0.13423813E+002
  0.50634756E+002
 -0.14385482E+002
  0.57102687E+002
 -0.64679314E+001
  0.57102687E+002
  0.00000000E+000
 -0.11260791E+003
  0.00000000E+000
  0.57488939E+002
  0.00000000E+000
  0.31408853E+002
  0.00000000E+000
 -0.12864662E+002
  0.00000000E+000
 -0.21052598E+002
  0.00000000E+000
  0.79542925E+001
  0.00000000E+000
  0.13423813E+002
  0.00000000E+000
 -0.14385482E+002
  0.00000000E+000
 -0.64679314E+001
  0.57102687E+002
 -0.12602314E+002
 -0.10000560E+003
 -0.52290479E+001
  0.50115674E+002
 -0.75883078E+000
  0.26938636E+002
 -0.15209807E+001
 -0.12102512E+002
 -0.48403114E+001
 -0.17733268E+002
 -0.39698689E+001
  0.70838501E+001
 -0.20334040E+001
  0.11487348E+002
 -0.30433522E+001
 -0.13375534E+002
 -0.43170140E+001
 -0.51942696E+001
  0.52785673E+002
 -0.19765346E+002
 -0.80240252E+002
 -0.88862138E+001
  0.39236541E+002
 -0.26267096E+001
  0.20679132E+002
 -0.48235155E+001
 -0.99057057E+001
 -0.93638934E+001
 -0.13192890E+002
 -0.78432373E+001
  0.55631940E+001
 -0.49671768E+001
  0.86112870E+001
 -0.71011572E+001
 -0.11241553E+002
 -0.86556926E+001
 -0.36397342E+001
  0.44129981E+002
 -0.22240400E+002
 -0.57999852E+002
 -0.10510455E+002
  0.27506596E+002
 -0.39498849E+001
  0.14118562E+002
 -0.68456066E+001
 -0.70099840E+001
 -0.11448451E+002
 -0.85900453E+001
 -0.96926403E+001
  0.38073832E+001
 -0.66721349E+001
  0.55907816E+001
 -0.94491412E+001
 -0.84645468E+001
 -0.10904937E+002
 -0.21839384E+001
  0.33225043E+002
 -0.22238158E+002
 -0.35761694E+002
 -0.11071798E+002
  0.16340236E+002
 -0.50772428E+001
  0.81240071E+001
 -0.80530541E+001
 -0.40341727E+001
 -0.12045193E+002
 -0.45979064E+001
 -0.10367287E+002
  0.21294770E+001
 -0.77188607E+001
  0.29423555E+001
 -0.10764720E+002
 -0.54186876E+001
 -0.11897044E+002
 -0.10516144E+001
  0.21328000E+002
 -0.19801747E+002
 -0.15959946E+002
 -0.10431548E+002
  0.69700364E+001
 -0.56400549E+001
  0.33325139E+001
 -0.81041948E+001
 -0.15700328E+001
 -0.11011162E+002
 -0.16909396E+001
 -0.96864267E+001
  0.80474206E+000
 -0.77734533E+001
  0.10293821E+001
 -0.10713530E+002
 -0.24786105E+001
 -0.11444404E+002
 -0.32074043E+000
  0.98835952E+001
 -0.12734296E+002
 -0.32256505E+001
 -0.70919756E+001
  0.13277161E+001
 -0.43707978E+001
  0.61133605E+000
 -0.56838027E+001
 -0.25702784E+000
 -0.71110926E+001
 -0.26364967E+000
 -0.64318326E+001
  0.12548201E+000
 -0.55503317E+001
  0.14788120E+000
 -0.75239556E+001
 -0.50498659E+000
 -0.78048641E+001
 -0.39831881E-001
  0.20787311E+001
 -0.31878192E+001
 -0.37831218E-001
 -0.18745597E+001
  0.14456477E-001
 -0.12697514E+001
  0.65277625E-002
 -0.15248765E+001
 -0.19027177E-002
 -0.17864326E+001
 -0.20935815E-002
 -0.16619089E+001
  0.95830135E-003
 -0.15148379E+001
  0.81028700E-003
 -0.20138719E+001
 -0.59526030E-002
 -0.20534908E+001
 -0.21301071E-003
  0.25240302E-001
 -0.37831218E-001
 -0.00000000E+000
 -0.00000000E+000
 -0.23374740E-001
 -0.00000000E+000
 -0.00000000E+000
 -0.16846978E-001
 -0.00000000E+000
 -0.00000000E+000
 -0.18749696E-001
 -0.00000000E+000
 -0.00000000E+000
 -0.20843277E-001
 -0.00000000E+000
 -0.00000000E+000
 -0.19884976E-001
 -0.00000000E+000
 -0.00000000E+000
 -0.19074689E-001
 -0.00000000E+000
 -0.00000000E+000
 -0.25027292E-001
 -0.00000000E+000
 -0.00000000E+000
 -0.25240302E-001
 -0.00000000E+000
 -0.00000000E+000
  0.00000000E+000
  0.47126770E+002
 -0.47126770E+002
  0.91081558E+002
 -0.43954788E+002
  0.64599049E+002
  0.26482508E+002
  0.78726788E+002
 -0.14127739E+002
  0.94621029E+002
 -0.15894241E+002
  0.90646486E+002
  0.39745430E+001
  0.81452395E+002
  0.91940915E+001
  0.96570826E+002
 -0.15118432E+002
  0.27272932E+002
  0.69297894E+002
  0.27272932E+002
  0.00000000E+000
 -0.47126770E+002
  0.00000000E+000
 -0.43954788E+002
  0.00000000E+000
  0.26482508E+002
  0.00000000E+000
 -0.14127739E+002
  0.00000000E+000
 -0.15894241E+002
  0.00000000E+000
  0.39745430E+001
  0.00000000E+000
  0.91940915E+001
  0.00000000E+000
 -0.15118432E+002
  0.00000000E+000
  0.69297894E+002
  0.27272932E+002
 -0.68188349E+001
 -0.40307935E+002
 -0.12197779E+002
 -0.38575845E+002
 -0.88416361E+001
  0.23126366E+002
 -0.10544737E+002
 -0.12424638E+002
 -0.12610496E+002
 -0.13828482E+002
 -0.12536655E+002
  0.39007012E+001
 -0.11121388E+002
  0.77788247E+001
 -0.12527415E+002
 -0.13712404E+002
 -0.37148458E+001
  0.60485325E+002
  0.23558086E+002
 -0.91277294E+001
 -0.31180205E+002
 -0.17022088E+002
 -0.30681486E+002
 -0.12027814E+002
  0.18132092E+002
 -0.14779134E+002
 -0.96733181E+001
 -0.17931352E+002
 -0.10676264E+002
 -0.17347197E+002
  0.33165460E+001
 -0.15364989E+002
  0.57966173E+001
 -0.17791989E+002
 -0.11285405E+002
 -0.51326887E+001
  0.47826025E+002
  0.18425397E+002
 -0.94285308E+001
 -0.21751674E+002
 -0.18113224E+002
 -0.21996792E+002
 -0.12637587E+002
  0.12656455E+002
 -0.15700499E+002
 -0.66104064E+001
 -0.19124492E+002
 -0.72522709E+001
 -0.18240085E+002
  0.24321392E+001
 -0.16208555E+002
  0.37650876E+001
 -0.19134557E+002
 -0.83594026E+001
 -0.54301888E+001
  0.34121657E+002
  0.12995209E+002
 -0.88111280E+001
 -0.12940546E+002
 -0.17364621E+002
 -0.13443300E+002
 -0.12134860E+002
  0.74266936E+001
 -0.15020160E+002
 -0.37251056E+001
 -0.18202912E+002
 -0.40695191E+001
 -0.17222675E+002
  0.14519017E+001
 -0.15451635E+002
  0.19940483E+001
 -0.18533877E+002
 -0.52771613E+001
 -0.51786026E+001
  0.20766383E+002
  0.78166061E+001
 -0.73888130E+001
 -0.55517334E+001
 -0.14859403E+002
 -0.59727103E+001
 -0.10531808E+002
  0.30990986E+001
 -0.12815353E+002
 -0.14415602E+001
 -0.15308397E+002
 -0.15764755E+001
 -0.14442329E+002
  0.58583389E+000
 -0.13152417E+002
  0.70413672E+000
 -0.16048524E+002
 -0.23810543E+001
 -0.44178333E+001
  0.91356917E+001
  0.33987728E+001
 -0.44720828E+001
 -0.10796506E+001
 -0.92379513E+001
 -0.12068418E+001
 -0.67130300E+001
  0.57417728E+000
 -0.79160876E+001
 -0.23850265E+000
 -0.92326540E+001
 -0.25990912E+000
 -0.87457936E+001
  0.98973503E-001
 -0.81446344E+001
  0.10297754E+000
 -0.10049450E+002
 -0.47623825E+000
 -0.27284752E+001
  0.18147164E+001
  0.67029763E+000
 -0.10674822E+001
 -0.12168383E-001
 -0.22601309E+001
 -0.14193089E-001
 -0.16920466E+001
  0.60929708E-002
 -0.19286953E+001
 -0.18539712E-002
 -0.21864031E+001
 -0.22012529E-002
 -0.20882739E+001
  0.84422521E-003
 -0.19858451E+001
  0.54879671E-003
 -0.24566168E+001
 -0.54665826E-002
 -0.66265053E+000
  0.20750192E-001
  0.76470951E-002
 -0.12168383E-001
 -0.00000000E+000
 -0.00000000E+000
 -0.26361473E-001
 -0.00000000E+000
 -0.00000000E+000
 -0.20268502E-001
 -0.00000000E+000
 -0.00000000E+000
 -0.22122473E-001
 -0.00000000E+000
 -0.00000000E+000
 -0.24323726E-001
 -0.00000000E+000
 -0.00000000E+000
 -0.23479501E-001
 -0.00000000E+000
 -0.00000000E+000
 -0.22930704E-001
 -0.00000000E+000
 -0.00000000E+000
 -0.28397287E-001
 -0.00000000E+000
 -0.00000000E+000
 -0.76470951E-002
 -0.00000000E+000
 -0.00000000E+000
  0.00000000E+000
  0.16296470E+001
 -0.16296470E+001
  0.32253031E+001
 -0.15956561E+001
  0.80905586E+000
  0.24162473E+001
  0.74885142E+000
  0.60204433E-001
 -0.32991514E+000
  0.10787666E+001
 -0.86176620E+000
  0.53185107E+000
 -0.14181055E+001
  0.55633933E+000
 -0.19116805E+001
  0.49357499E+000
 -0.30892056E+001
  0.11775251E+001
 -0.30892056E+001
  0.00000000E+000
 -0.16296470E+001
  0.00000000E+000
 -0.15956561E+001
  0.00000000E+000
  0.24162473E+001
  0.00000000E+000
  0.60204433E-001
  0.00000000E+000
  0.10787666E+001
  0.00000000E+000
  0.53185107E+000
  0.00000000E+000
  0.55633933E+000
  0.00000000E+000
  0.49357499E+000
  0.00000000E+000
  0.11775251E+001
 -0.30892056E+001
 -0.10570517E+001
 -0.57259528E+000
 -0.35038312E+000
 -0.23023247E+001
 -0.20086932E+000
  0.22667335E+001
 -0.18880066E+000
  0.48135774E-001
  0.17671221E-001
  0.87229468E+000
  0.12194670E+000
  0.42757559E+000
  0.24948669E+000
  0.42879934E+000
  0.36975895E+000
  0.37330273E+000
  0.58930042E+000
  0.95798365E+000
 -0.24999052E+001
 -0.99894903E+000
  0.42635375E+000
 -0.64478693E+000
 -0.26564868E+001
 -0.23838032E+000
  0.18603269E+001
 -0.21502493E+000
  0.24780382E-001
  0.31551424E-001
  0.62571833E+000
  0.15364677E+000
  0.30548024E+000
  0.28903656E+000
  0.29340954E+000
  0.41200876E+000
  0.25033053E+000
  0.66406051E+000
  0.70593190E+000
 -0.18358447E+001
 -0.26953729E+000
  0.69589104E+000
 -0.74847230E+000
 -0.21775518E+001
 -0.17123205E+000
  0.12830866E+001
 -0.17877234E+000
  0.32320669E-001
  0.49585216E-001
  0.39736077E+000
  0.15674226E+000
  0.19832320E+000
  0.27025338E+000
  0.17989843E+000
  0.37051212E+000
  0.15007179E+000
  0.60449651E+000
  0.47194751E+000
 -0.12313482E+001
  0.49003459E+000
  0.20585645E+000
 -0.72094390E+000
 -0.96657333E+000
 -0.10196453E+000
  0.66410724E+000
 -0.12279575E+000
  0.53151884E-001
  0.63897965E-001
  0.21066706E+000
  0.15246794E+000
  0.10975322E+000
  0.24066590E+000
  0.91700472E-001
  0.31558484E+000
  0.75152854E-001
  0.51858801E+000
  0.26894434E+000
 -0.71276020E+000
  0.22058251E+000
 -0.14726060E-001
 -0.50525433E+000
 -0.24073648E+000
 -0.71576945E-001
  0.23042985E+000
 -0.54497242E-001
  0.36072180E-001
  0.77342782E-001
  0.78827037E-001
  0.14351446E+000
  0.43581542E-001
  0.20182208E+000
  0.33392851E-001
  0.24991818E+000
  0.27056754E-001
  0.40676106E+000
  0.11210146E+000
 -0.30599914E+000
  0.11591051E-002
 -0.15885165E-001
 -0.21969885E+000
 -0.19878529E-001
 -0.24307034E-001
  0.35038042E-001
  0.29444707E-002
  0.88206752E-002
  0.68706243E-001
  0.13065265E-001
  0.10477999E+000
  0.75077901E-002
  0.13285900E+000
  0.53138460E-002
  0.15551724E+000
  0.43985183E-002
  0.24588546E+000
  0.21733232E-001
 -0.60113674E-001
 -0.15695824E-001
 -0.18934076E-003
 -0.35522716E-001
 -0.51637527E-004
 -0.78145232E-003
  0.29677866E-003
  0.79265796E-002
  0.11264327E-003
  0.20867785E-001
  0.12405976E-003
  0.28305413E-001
  0.70162431E-004
  0.33575191E-001
  0.44067848E-004
  0.37937774E-001
  0.35934829E-004
  0.59422186E-001
  0.24882016E-003
 -0.69148868E-003
 -0.18934076E-003
 -0.00000000E+000
 -0.00000000E+000
 -0.24097829E-003
 -0.00000000E+000
 -0.00000000E+000
  0.55800373E-004
  0.00000000E+000
  0.00000000E+000
  0.16844364E-003
 -0.00000000E+000
  0.00000000E+000
  0.29250341E-003
 -0.00000000E+000
  0.00000000E+000
  0.36266584E-003
 -0.00000000E+000
  0.00000000E+000
  0.40673368E-003
 -0.00000000E+000
  0.00000000E+000
  0.44266851E-003
 -0.00000000E+000
  0.00000000E+000
  0.69148868E-003
 -0.00000000E+000
  0.00000000E+000
 -0.00000000E+000
 -0.24048998E+001
  0.24048998E+001
  0.46966496E+000
 -0.28745647E+001
 -0.10768880E+001
  0.15465530E+001
 -0.14768226E+001
  0.39993464E+000
 -0.17214861E+001
  0.24466343E+000
 -0.14203259E+001
 -0.30116015E+000
 -0.11469056E+001
 -0.27342030E+000
 -0.69167576E+000
 -0.45522984E+000
 -0.93192215E-002
 -0.68235654E+000
 -0.93192215E-002
  0.00000000E+000
  0.24048998E+001
  0.00000000E+000
 -0.28745647E+001
  0.00000000E+000
  0.15465530E+001
  0.00000000E+000
  0.39993464E+000
  0.00000000E+000
  0.24466343E+000
  0.00000000E+000
 -0.30116015E+000
  0.00000000E+000
 -0.27342030E+000
  0.00000000E+000
 -0.45522984E+000
  0.00000000E+000
 -0.68235654E+000
 -0.93192215E-002
  0.68749813E+000
  0.17174016E+001
 -0.40296462E+000
 -0.17841020E+001
 -0.12195554E+000
  0.12655439E+001
 -0.16102772E+000
  0.43900683E+000
 -0.19502796E+000
  0.27866367E+000
 -0.29576750E+000
 -0.20042062E+000
 -0.33397593E+000
 -0.23521187E+000
 -0.35204491E+000
 -0.43716086E+000
 -0.43443606E+000
 -0.59996540E+000
 -0.44375528E+000
  0.76514165E+000
  0.95225998E+000
 -0.32420413E+000
 -0.69475619E+000
  0.40776031E-001
  0.90056370E+000
  0.63221910E-001
  0.41656095E+000
  0.69103156E-001
  0.27278242E+000
 -0.27352933E-001
 -0.10396453E+000
 -0.87291753E-001
 -0.17527305E+000
 -0.15216663E+000
 -0.37228598E+000
 -0.28583563E+000
 -0.46629640E+000
 -0.72959091E+000
  0.47420960E+000
  0.47805039E+000
 -0.97755064E-001
 -0.12279153E+000
  0.19338113E+000
  0.60942751E+000
  0.27144919E+000
  0.33849289E+000
  0.31126593E+000
  0.23296568E+000
  0.24305729E+000
 -0.35755882E-001
  0.18070122E+000
 -0.11291699E+000
  0.86345378E-001
 -0.27793014E+000
 -0.64917146E-001
 -0.31503387E+000
 -0.79450805E+000
  0.20790046E+000
  0.27014992E+000
  0.10999486E+000
 -0.24885930E-001
  0.33387990E+000
  0.38554246E+000
  0.44346670E+000
  0.22890609E+000
  0.50596707E+000
  0.17046531E+000
  0.46053396E+000
  0.96772320E-002
  0.39777944E+000
 -0.50162472E-001
  0.28551796E+000
 -0.16566866E+000
  0.13741367E+000
 -0.16692958E+000
 -0.65709438E+000
  0.16639608E+000
  0.10375385E+000
  0.12917388E+000
  0.12336271E-001
  0.35113219E+000
  0.16358415E+000
  0.47595892E+000
  0.10407937E+000
  0.56563783E+000
  0.80786391E-001
  0.55998429E+000
  0.15330773E-001
  0.52217745E+000
 -0.12355634E-001
  0.42171285E+000
 -0.65204050E-001
  0.31037291E+000
 -0.55589640E-001
 -0.34672148E+000
  0.89847100E-001
  0.13906748E-001
  0.97873087E-001
  0.43102834E-002
  0.23445350E+000
  0.27003731E-001
  0.31918700E+000
  0.19345879E-001
  0.38308300E+000
  0.16890385E-001
  0.39173119E+000
  0.66825889E-002
  0.37732871E+000
  0.20468383E-002
  0.32045489E+000
 -0.83302305E-002
  0.26895667E+000
 -0.40914188E-002
 -0.77764804E-001
  0.13843415E-001
  0.63332842E-004
  0.18160081E-001
 -0.63821958E-005
  0.44992030E-001
  0.17178095E-003
  0.64198178E-001
  0.13973104E-003
  0.80934843E-001
  0.15372039E-003
  0.87520845E-001
  0.96587215E-004
  0.89482047E-001
  0.85635798E-004
  0.81146095E-001
  0.57217056E-005
  0.76990012E-001
  0.64664345E-004
 -0.77479209E-003
  0.63332842E-004
 -0.00000000E+000
 -0.00000000E+000
  0.56950646E-004
 -0.00000000E+000
 -0.00000000E+000
  0.22873159E-003
 -0.00000000E+000
 -0.00000000E+000
  0.36846263E-003
 -0.00000000E+000
 -0.00000000E+000
  0.52218302E-003
 -0.00000000E+000
 -0.00000000E+000
  0.61877024E-003
 -0.00000000E+000
 -0.00000000E+000
  0.70440604E-003
  0.00000000E+000
  0.00000000E+000
  0.71012774E-003
 -0.00000000E+000
  0.00000000E+000
  0.77479209E-003
 -0.00000000E+000
  0.00000000E+000
 -0.00000000E+000
  0.21074206E+002
 -0.21074206E+002
  0.15946085E+002
  0.51281213E+001
  0.58746199E+001
  0.10071465E+002
 -0.13784716E+001
  0.72530915E+001
 -0.15222276E+001
  0.14375605E+000
 -0.19244537E+001
  0.40222603E+000
 -0.18137197E+001
 -0.11073399E+000
 -0.13603431E+001
 -0.45337654E+000
 -0.19958108E+000
 -0.11607621E+001
 -0.19958108E+000
  0.00000000E+000
 -0.21074206E+002
  0.00000000E+000
  0.51281213E+001
  0.00000000E+000
  0.10071465E+002
  0.00000000E+000
  0.72530915E+001
  0.00000000E+000
  0.14375605E+000
  0.00000000E+000
  0.40222603E+000
  0.00000000E+000
 -0.11073399E+000
  0.00000000E+000
 -0.45337654E+000
  0.00000000E+000
 -0.11607621E+001
 -0.19958108E+000
 -0.35700803E+001
 -0.17504126E+002
 -0.16636031E+001
  0.32216441E+001
 -0.32248839E+000
  0.87303502E+001
 -0.22065607E+000
  0.71512592E+001
 -0.14200373E+000
  0.65103714E-001
 -0.18256618E+000
  0.44278848E+000
 -0.20202787E+000
 -0.91272301E-001
 -0.21681024E+000
 -0.43859417E+000
 -0.38482476E+000
 -0.99274753E+000
 -0.58440584E+000
 -0.51982714E+001
 -0.12305854E+002
 -0.27212513E+001
  0.74462411E+000
 -0.83780236E+000
  0.68469012E+001
  0.10323360E-001
  0.63031335E+001
  0.75273480E-001
  0.15359470E-003
  0.89944453E-001
  0.42811751E+000
  0.62566909E-001
 -0.63894756E-001
  0.13021319E-003
 -0.37615747E+000
 -0.23219220E+000
 -0.76042512E+000
 -0.81659804E+000
 -0.47333155E+001
 -0.75725390E+001
 -0.31580614E+001
 -0.83063005E+000
 -0.11127297E+001
  0.48015696E+001
  0.23485253E+000
  0.49555512E+001
  0.27422417E+000
 -0.39218049E-001
  0.34232909E+000
  0.36001259E+000
  0.31592705E+000
 -0.37492723E-001
  0.22377882E+000
 -0.28400924E+000
 -0.20123065E-001
 -0.51652324E+000
 -0.83672110E+000
 -0.38152319E+001
 -0.37573070E+001
 -0.32716854E+001
 -0.13741766E+001
 -0.12484452E+001
  0.27783293E+001
  0.44170768E+000
  0.32653984E+001
  0.43394763E+000
 -0.31458001E-001
  0.54083738E+000
  0.25312284E+000
  0.51112643E+000
 -0.77817690E-002
  0.39938196E+000
 -0.17226477E+000
  0.16901572E+000