<?xml version="1.0"?>
<VTKFile type="PolyData" version="0.1" byte_order="LittleEndian">
  <PolyData>
    <Piece NumberOfPoints="     10" NumberOfVerts="  0" NumberOfLines="      9"
           NumberOfStrips="  0" NumberOfPolys="      0">
      <Points>
        <DataArray type="Float32" NumberOfComponents="3" format="ascii">
                       0.28397                       0.06164                     113.18085
                       5.24143                      19.92197                     100.77906
                       8.81772                      34.10496                      88.71320
                      11.84130                      45.94492                      76.55866
                      13.30267                      51.63131                      64.21435
                      13.30291                      51.53323                      51.94965
                      11.83214                      45.76683                      39.64758
                       8.79962                      34.01777                      27.39922
                       5.14964                      19.89657                      15.26318
                       0.00017                       0.00003                       3.00019
        </DataArray>
      </Points>
      <PointData>
        <DataArray type="Float32" Name="TranslationalVelocity" NumberOfComponents="3" format="ascii">
                       3.18391                       0.78113                      -0.01040
                     -34.36142                       9.41887                      -1.22776
                     -61.01970                      17.03722                      -0.40495
                     -83.08350                      23.22727                       0.47536
                     -93.88187                      24.58326                      -0.10108
                     -93.54883                      23.71968                      -0.15199
                     -82.62121                      21.52846                      -0.46982
                     -61.19426                      16.30729                      -0.53364
                     -35.84112                       9.28112                      -0.01351
                      -0.00047                      -0.00038                       0.00024
        </DataArray>
        <DataArray type="Float32" Name="RotationalVelocity" NumberOfComponents="3" format="ascii">
                      -0.01749                       0.09799                       1.81393
                       0.01368                       0.12856                       1.80122
                       0.13010                       0.04120                       1.83298
                      -0.05793                      -0.00405                       1.89533
                      -0.13332                       0.00039                       1.88799
                       0.00631                      -0.03697                       1.81602
                       0.05335                      -0.04958                       1.78874
                      -0.04329                      -0.00002                       1.79531
                      -0.01370                       0.00164                       1.80009
                       0.02413                       0.00660                       1.80178
        </DataArray>
        <DataArray type="Float32" Name="TranslationalAcceleration" NumberOfComponents="3" format="ascii">
                      10.92031                      -8.68248                       0.15775
                       9.35563                      -2.78363                       6.20804
                       0.89977                     -16.80758                      -9.32414
                      -4.89272                      -9.74097                     -10.51473
                      -3.10865                       7.76465                      -0.50937
                      -1.72163                       7.49751                       1.73358
                      -2.13799                      -3.20340                       8.55359
                      -2.28046                      -7.68409                       8.15123
                       0.49379                       2.29330                      -1.00194
                       0.00492                      -0.00358                       0.03600
        </DataArray>
        <DataArray type="Float32" Name="OrientationX" NumberOfComponents="3" format="ascii">
                       0.70294                       0.71117                      -0.01010
                       0.27127                       0.96248                       0.00650
                       0.24911                       0.96847                      -0.00139
                       0.23770                       0.97131                      -0.00725
                       0.25159                       0.96783                       0.00190
                       0.25801                       0.96612                       0.00706
                       0.24483                       0.96957                      -0.00126
                       0.24758                       0.96887                      -0.00119
                       0.25316                       0.96742                       0.00104
                       0.25093                       0.96798                       0.00668
        </DataArray>
        <DataArray type="Float32" Name="OrientationY" NumberOfComponents="3" format="ascii">
                       0.71124                      -0.70294                       0.00471
                       0.96250                      -0.27126                      -0.00250
                       0.96847                      -0.24911                      -0.00368
                       0.97133                      -0.23772                      -0.00165
                       0.96783                      -0.25159                      -0.00018
                       0.96614                      -0.25801                      -0.00023
                       0.96957                      -0.24483                      -0.00040
                       0.96887                      -0.24758                       0.00001
                       0.96742                      -0.25316                       0.00012
                       0.96794                      -0.25099                       0.00982
        </DataArray>
        <DataArray type="Float32" Name="OrientationZ" NumberOfComponents="3" format="ascii">
                      -0.00375                      -0.01049                      -0.99994
                      -0.00064                       0.00694                      -0.99998
                      -0.00391                      -0.00043                      -0.99999
                      -0.00332                      -0.00665                      -0.99997
                       0.00031                       0.00189                      -1.00000
                       0.00160                       0.00688                      -0.99998
                      -0.00070                      -0.00113                      -1.00000
                      -0.00029                      -0.00116                      -1.00000
                       0.00038                       0.00097                      -1.00000
                       0.01118                       0.00400                      -0.99993
        </DataArray>
      </PointData>
      <Lines>
        <DataArray type="Int32" Name="connectivity" format="ascii">
      0      1
      1      2
      2      3
      3      4
      4      5
      5      6
      6      7
      7      8
      8      9
        </DataArray>
        <DataArray type="Int32" Name="offsets" format="ascii">
      2
      4
      6
      8
     10
     12
     14
     16
     18
        </DataArray>
      </Lines>
    </Piece>
  </PolyData>
</VTKFile>
