# vtk DataFile Version 2.0

ASCII
 
DATASET POLYDATA
POINTS 70 double
  0.35609182E-001  0.62507968E-002  0.11318187E+003
  0.86371791E+001  0.18658459E+002  0.10091112E+003
  0.14734985E+002  0.31845852E+002  0.88712688E+002
  0.19843010E+002  0.42872596E+002  0.76477353E+002
  0.22381037E+002  0.48356902E+002  0.64216746E+002
  0.22376279E+002  0.48347749E+002  0.51966672E+002
  0.19834647E+002  0.42854699E+002  0.39711402E+002
  0.14730422E+002  0.31831186E+002  0.27469135E+002
  0.86319681E+001  0.18651684E+002  0.15255197E+002
  0.16241854E-003  0.37530681E-004  0.30001114E+001
  0.26286751E+001 -0.36715211E+001  0.11318363E+003
  0.12633983E+002  0.16789365E+002  0.10091058E+003
  0.17547206E+002  0.30548928E+002  0.88713498E+002
  0.22073714E+002  0.41846298E+002  0.76477968E+002
  0.24428090E+002  0.47409221E+002  0.64216872E+002
  0.24462369E+002  0.47379993E+002  0.51966318E+002
  0.22196502E+002  0.41766968E+002  0.39710710E+002
  0.17840020E+002  0.30394084E+002  0.27469384E+002
  0.12713924E+002  0.16757578E+002  0.15255474E+002
  0.40841172E+001 -0.18897359E+001  0.30084701E+001
  0.27206340E+001 -0.37198429E+001  0.11318273E+003
  0.13106725E+002  0.16562166E+002  0.10092034E+003
  0.18262014E+002  0.30212958E+002  0.88709504E+002
  0.22988339E+002  0.41423357E+002  0.76470032E+002
  0.25448927E+002  0.46956036E+002  0.64216218E+002
  0.25485144E+002  0.46931134E+002  0.51967580E+002
  0.23113807E+002  0.41350584E+002  0.39716568E+002
  0.18553743E+002  0.30059242E+002  0.27475115E+002
  0.13186591E+002  0.16526785E+002  0.15253053E+002
  0.42211956E+001 -0.19630024E+001  0.30060443E+001
  0.28143724E+001 -0.37667116E+001  0.11318243E+003
  0.13576075E+002  0.16328887E+002  0.10092934E+003
  0.18970884E+002  0.29869170E+002  0.88705550E+002
  0.23895639E+002  0.40989993E+002  0.76463614E+002
  0.26460498E+002  0.46486997E+002  0.64215291E+002
  0.26498331E+002  0.46465116E+002  0.51968598E+002
  0.24022948E+002  0.40920962E+002  0.39721190E+002
  0.19261555E+002  0.29715513E+002  0.27479350E+002
  0.13655228E+002  0.16290646E+002  0.15249708E+002
  0.43570555E+001 -0.20357365E+001  0.30037191E+001
  0.29101935E+001 -0.38120283E+001  0.11318239E+003
  0.14041262E+002  0.16089183E+002  0.10093603E+003
  0.19673665E+002  0.29518295E+002  0.88701642E+002
  0.24795728E+002  0.40546213E+002  0.76458888E+002
  0.27462071E+002  0.46001101E+002  0.64214128E+002
  0.27500611E+002  0.45980315E+002  0.51969460E+002
  0.24923440E+002  0.40477816E+002  0.39724730E+002
  0.19963031E+002  0.29362833E+002  0.27482525E+002
  0.14119286E+002  0.16048644E+002  0.15246076E+002
  0.44915977E+001 -0.21078783E+001  0.30018109E+001
  0.30088614E+001 -0.38554612E+001  0.11318239E+003
  0.14501492E+002  0.15843175E+002  0.10093948E+003
  0.20371179E+002  0.29162091E+002  0.88698883E+002
  0.25689527E+002  0.40093622E+002  0.76456143E+002
  0.28454517E+002  0.45500795E+002  0.64213053E+002
  0.28492920E+002  0.45479631E+002  0.51970055E+002
  0.25816317E+002  0.40023575E+002  0.39726889E+002
  0.20658561E+002  0.29002688E+002  0.27484388E+002
  0.14578347E+002  0.15800746E+002  0.15243455E+002
  0.46248606E+001 -0.21793052E+001  0.30006949E+001
  0.31099357E+001 -0.38968964E+001  0.11318239E+003
  0.14956740E+002  0.15591769E+002  0.10094046E+003
  0.21064248E+002  0.28801078E+002  0.88698115E+002
  0.26578104E+002  0.39634085E+002  0.76455416E+002
  0.29440072E+002  0.44990577E+002  0.64212678E+002
  0.29478047E+002  0.44968630E+002  0.51970240E+002
  0.26703530E+002  0.39561692E+002  0.39727472E+002
  0.21348939E+002  0.28636679E+002  0.27484804E+002
  0.15032658E+002  0.15547797E+002  0.15242563E+002
  0.47569287E+001 -0.22499107E+001  0.30003871E+001
  
POLYGONS 54 270
      4      0      1     11     10
      4      1      2     12     11
      4      2      3     13     12
      4      3      4     14     13
      4      4      5     15     14
      4      5      6     16     15
      4      6      7     17     16
      4      7      8     18     17
      4      8      9     19     18
      4     10     11     21     20
      4     11     12     22     21
      4     12     13     23     22
      4     13     14     24     23
      4     14     15     25     24
      4     15     16     26     25
      4     16     17     27     26
      4     17     18     28     27
      4     18     19     29     28
      4     20     21     31     30
      4     21     22     32     31
      4     22     23     33     32
      4     23     24     34     33
      4     24     25     35     34
      4     25     26     36     35
      4     26     27     37     36
      4     27     28     38     37
      4     28     29     39     38
      4     30     31     41     40
      4     31     32     42     41
      4     32     33     43     42
      4     33     34     44     43
      4     34     35     45     44
      4     35     36     46     45
      4     36     37     47     46
      4     37     38     48     47
      4     38     39     49     48
      4     40     41     51     50
      4     41     42     52     51
      4     42     43     53     52
      4     43     44     54     53
      4     44     45     55     54
      4     45     46     56     55
      4     46     47     57     56
      4     47     48     58     57
      4     48     49     59     58
      4     50     51     61     60
      4     51     52     62     61
      4     52     53     63     62
      4     53     54     64     63
      4     54     55     65     64
      4     55     56     66     65
      4     56     57     67     66
      4     57     58     68     67
      4     58     59     69     68
  
CELL_DATA 54
SCALARS Gamma double
LOOKUP_TABLE default
  0.35761694E+002
  0.19421458E+002
  0.11297451E+002
  0.15331624E+002
  0.19929530E+002
  0.17800053E+002
  0.14857698E+002
  0.20276385E+002
  0.21328000E+002
  0.35761694E+002
  0.19421458E+002
  0.11297451E+002
  0.15331624E+002
  0.19929530E+002
  0.17800053E+002
  0.14857698E+002
  0.20276385E+002
  0.21328000E+002
  0.15959946E+002
  0.89899100E+001
  0.56573961E+001
  0.72274289E+001
  0.89183685E+001
  0.81136264E+001
  0.70842443E+001
  0.95628548E+001
  0.98835952E+001
  0.32256505E+001
  0.18979344E+001
  0.12865983E+001
  0.15436262E+001
  0.18072758E+001
  0.16817938E+001
  0.15339126E+001
  0.20388992E+001
  0.20787311E+001
  0.37831218E-001
  0.23374740E-001
  0.16846978E-001
  0.18749696E-001
  0.20843277E-001
  0.19884976E-001
  0.19074689E-001
  0.25027292E-001
  0.25240302E-001
  0.00000000E+000
  0.00000000E+000
  0.00000000E+000
  0.00000000E+000
  0.00000000E+000
  0.00000000E+000
  0.00000000E+000
  0.00000000E+000
  0.00000000E+000
POINT_DATA 70
VECTORS Uconv double
  0.00000000E+000  0.00000000E+000  0.00000000E+000
  0.00000000E+000  0.00000000E+000  0.00000000E+000
  0.00000000E+000  0.00000000E+000  0.00000000E+000
  0.00000000E+000  0.00000000E+000  0.00000000E+000
  0.00000000E+000  0.00000000E+000  0.00000000E+000
  0.00000000E+000  0.00000000E+000  0.00000000E+000
  0.00000000E+000  0.00000000E+000  0.00000000E+000
  0.00000000E+000  0.00000000E+000  0.00000000E+000
  0.00000000E+000  0.00000000E+000  0.00000000E+000
  0.00000000E+000  0.00000000E+000  0.00000000E+000
  0.00000000E+000  0.00000000E+000  0.00000000E+000
  0.00000000E+000  0.00000000E+000  0.00000000E+000
  0.00000000E+000  0.00000000E+000  0.00000000E+000
  0.00000000E+000  0.00000000E+000  0.00000000E+000
  0.00000000E+000  0.00000000E+000  0.00000000E+000
  0.00000000E+000  0.00000000E+000  0.00000000E+000
  0.00000000E+000  0.00000000E+000  0.00000000E+000
  0.00000000E+000  0.00000000E+000  0.00000000E+000
  0.00000000E+000  0.00000000E+000  0.00000000E+000
  0.00000000E+000  0.00000000E+000  0.00000000E+000
  0.17193027E+002  0.12983836E-001 -0.44073730E-001
  0.17188751E+002 -0.22835941E-001 -0.97150806E-001
  0.17187751E+002 -0.22684766E-001 -0.27743877E-001
  0.17189205E+002 -0.22997771E-001 -0.14845544E-001
  0.17168289E+002 -0.68707688E-001 -0.40609988E-002
  0.17167404E+002 -0.70681925E-001  0.59353752E-002
  0.17186324E+002 -0.29505888E-001  0.21523170E-001
  0.17182891E+002 -0.31346574E-001  0.36143648E-001
  0.17185345E+002 -0.25093165E-001  0.48769220E-001
  0.17182543E+002  0.51208394E-002  0.33648212E-001
  0.17193489E+002  0.14284098E-001 -0.43822565E-001
  0.17192060E+002 -0.16038663E-001 -0.67160452E-001
  0.17193463E+002 -0.11374502E-001 -0.13850656E-001
  0.17192817E+002 -0.16300649E-001 -0.74691747E-002
  0.17182777E+002 -0.38319476E-001 -0.40306287E-002
  0.17181958E+002 -0.40086452E-001  0.58959078E-002
  0.17190538E+002 -0.21068421E-001  0.12322397E-001
  0.17189564E+002 -0.18121309E-001  0.20183887E-001
  0.17187886E+002 -0.20003337E-001  0.35830375E-001
  0.17183080E+002  0.56761743E-002  0.33418661E-001
  0.17193941E+002  0.15610945E-001 -0.43567004E-001
  0.17195404E+002 -0.92893896E-002 -0.37962730E-001
  0.17199461E+002  0.17565931E-003  0.42745953E-003
  0.17196732E+002 -0.91399965E-002  0.28065539E-003
  0.17199101E+002 -0.54452030E-002 -0.39228105E-002
  0.17198211E+002 -0.72399320E-002  0.57082325E-002
  0.17195179E+002 -0.12073736E-001  0.25772582E-002
  0.17196540E+002 -0.47057385E-002  0.38827052E-002
  0.17190436E+002 -0.14942611E-001  0.23120537E-001
  0.17183606E+002  0.62323794E-002  0.33220941E-001
  0.17194377E+002  0.16968497E-001 -0.43305082E-001
  0.17198795E+002 -0.27156599E-002 -0.11409969E-001
  0.17205278E+002  0.11159166E-001  0.14090060E-001
  0.17200527E+002 -0.23109342E-002  0.75213441E-002
  0.17212681E+002  0.20756806E-001 -0.37260001E-002
  0.17211681E+002  0.18725206E-001  0.54121734E-002
  0.17199730E+002 -0.34999229E-002 -0.66168708E-002
  0.17203297E+002  0.79523488E-002 -0.11605153E-001
  0.17192949E+002 -0.10072308E-001  0.11453048E-001
  0.17184120E+002  0.67875665E-002  0.33052665E-001
  0.17194798E+002  0.18350114E-001 -0.43034035E-001
  0.17202085E+002  0.35024955E-002  0.10994478E-001
  0.17210517E+002  0.20883135E-001  0.26270998E-001
  0.17203835E+002  0.35257052E-002  0.13520172E-001
  0.17220824E+002  0.35639897E-001 -0.34344107E-002
  0.17219732E+002  0.33392286E-001  0.50015719E-002
  0.17203728E+002  0.37852498E-002 -0.14286204E-001
  0.17209372E+002  0.19071823E-001 -0.25305133E-001
  0.17195353E+002 -0.55360493E-002  0.15563755E-002
  0.17184619E+002  0.73369381E-002  0.32909397E-001
