# vtk DataFile Version 2.0

ASCII
 
DATASET POLYDATA
POINTS 2 double
  0.00000000E+000  0.00000000E+000  0.00000000E+000
  0.00000000E+000  0.00000000E+000  0.00000000E+000
  
POLYGONS 0 0
  
CELL_DATA 0
SCALARS Gamma double
LOOKUP_TABLE default

POINT_DATA 2
VECTORS Uconv double
  0.61399092E-001 -0.41031556E+000 -0.75469042E-001
  0.61399092E-001 -0.41031556E+000 -0.75469042E-001
