# vtk DataFile Version 2.0

ASCII
 
DATASET POLYDATA
POINTS 30 double
  0.84663596E-003  0.13956960E-003  0.11318284E+003
  0.99534873E+001  0.17980542E+002  0.10093952E+003
  0.16973702E+002  0.30661850E+002  0.88698587E+002
  0.22853234E+002  0.41282852E+002  0.76456043E+002
  0.25792816E+002  0.46593086E+002  0.64213108E+002
  0.25792749E+002  0.46592986E+002  0.51970046E+002
  0.22853200E+002  0.41282720E+002  0.39727064E+002
  0.16973501E+002  0.30661728E+002  0.27484488E+002
  0.99534272E+001  0.17980314E+002  0.15243298E+002
  0.15840999E-004  0.30469958E-005  0.30000098E+001
  0.23209308E+001 -0.38556625E+001  0.11318291E+003
  0.13813513E+002  0.15843218E+002  0.10093965E+003
  0.19683125E+002  0.29161974E+002  0.88698736E+002
  0.25001554E+002  0.40093714E+002  0.76456093E+002
  0.27766409E+002  0.45500632E+002  0.64213124E+002
  0.27804800E+002  0.45479443E+002  0.51969990E+002
  0.25128328E+002  0.40023629E+002  0.39726955E+002
  0.19970532E+002  0.29002612E+002  0.27484503E+002
  0.13890434E+002  0.15800870E+002  0.15243303E+002
  0.39370528E+001 -0.21793868E+001  0.30003018E+001
  0.24220000E+001 -0.38971143E+001  0.11318291E+003
  0.14268721E+002  0.15591736E+002  0.10094036E+003
  0.20376129E+002  0.28800840E+002  0.88697816E+002
  0.25890071E+002  0.39634067E+002  0.76455271E+002
  0.28751837E+002  0.44990177E+002  0.64212725E+002
  0.28789820E+002  0.44968247E+002  0.51970180E+002
  0.26015491E+002  0.39561656E+002  0.39727634E+002
  0.20660835E+002  0.28636465E+002  0.27485089E+002
  0.14344714E+002  0.15547861E+002  0.15242543E+002
  0.40691143E+001 -0.22500000E+001  0.29999979E+001
  
POLYGONS 18 90
      4      0      1     11     10
      4      1      2     12     11
      4      2      3     13     12
      4      3      4     14     13
      4      4      5     15     14
      4      5      6     16     15
      4      6      7     17     16
      4      7      8     18     17
      4      8      9     19     18
      4     10     11     21     20
      4     11     12     22     21
      4     12     13     23     22
      4     13     14     24     23
      4     14     15     25     24
      4     15     16     26     25
      4     16     17     27     26
      4     17     18     28     27
      4     18     19     29     28
  
CELL_DATA 18
SCALARS Gamma double
LOOKUP_TABLE default
  0.00000000E+000
  0.00000000E+000
  0.00000000E+000
  0.00000000E+000
  0.00000000E+000
  0.00000000E+000
  0.00000000E+000
  0.00000000E+000
  0.00000000E+000
  0.00000000E+000
  0.00000000E+000
  0.00000000E+000
  0.00000000E+000
  0.00000000E+000
  0.00000000E+000
  0.00000000E+000
  0.00000000E+000
  0.00000000E+000
POINT_DATA 30
VECTORS Uconv double
  0.00000000E+000  0.00000000E+000  0.00000000E+000
  0.00000000E+000  0.00000000E+000  0.00000000E+000
  0.00000000E+000  0.00000000E+000  0.00000000E+000
  0.00000000E+000  0.00000000E+000  0.00000000E+000
  0.00000000E+000  0.00000000E+000  0.00000000E+000
  0.00000000E+000  0.00000000E+000  0.00000000E+000
  0.00000000E+000  0.00000000E+000  0.00000000E+000
  0.00000000E+000  0.00000000E+000  0.00000000E+000
  0.00000000E+000  0.00000000E+000  0.00000000E+000
  0.00000000E+000  0.00000000E+000  0.00000000E+000
  0.00000000E+000  0.00000000E+000  0.00000000E+000
  0.00000000E+000  0.00000000E+000  0.00000000E+000
  0.00000000E+000  0.00000000E+000  0.00000000E+000
  0.00000000E+000  0.00000000E+000  0.00000000E+000
  0.00000000E+000  0.00000000E+000  0.00000000E+000
  0.00000000E+000  0.00000000E+000  0.00000000E+000
  0.00000000E+000  0.00000000E+000  0.00000000E+000
  0.00000000E+000  0.00000000E+000  0.00000000E+000
  0.00000000E+000  0.00000000E+000  0.00000000E+000
  0.00000000E+000  0.00000000E+000  0.00000000E+000
  0.17200000E+002 -0.00000000E+000  0.00000000E+000
  0.17200000E+002 -0.00000000E+000  0.00000000E+000
  0.17200000E+002 -0.00000000E+000  0.00000000E+000
  0.17200000E+002 -0.00000000E+000  0.00000000E+000
  0.17200000E+002 -0.00000000E+000  0.00000000E+000
  0.17200000E+002 -0.00000000E+000  0.00000000E+000
  0.17200000E+002 -0.00000000E+000  0.00000000E+000
  0.17200000E+002 -0.00000000E+000  0.00000000E+000
  0.17200000E+002 -0.00000000E+000  0.00000000E+000
  0.17200000E+002 -0.00000000E+000  0.00000000E+000
