# vtk DataFile Version 2.0
BldPointCP.BldC
ASCII
 
DATASET POLYDATA
POINTS 9 double
  0.75049651E+001 -0.87244836E+001  0.10630625E+003
  0.18237020E+002 -0.21464919E+002  0.94537813E+002
  0.26852933E+002 -0.31643269E+002  0.82370464E+002
  0.32660176E+002 -0.38460784E+002  0.70110725E+002
  0.34510624E+002 -0.40605901E+002  0.58093473E+002
  0.32642233E+002 -0.38387630E+002  0.46088454E+002
  0.26831460E+002 -0.31560236E+002  0.33822571E+002
  0.18208944E+002 -0.21428878E+002  0.21608953E+002
  0.74206456E+001 -0.87348992E+001  0.98406381E+001
  
POINT_DATA 9
SCALARS Gamma_LL double
LOOKUP_TABLE default
  0.50133611E+002
  0.95802285E+002
  0.68396894E+002
  0.82775051E+002
  0.98966935E+002
  0.95623256E+002
  0.85937736E+002
  0.10113575E+003
  0.28760945E+002
VECTORS Vind_CP double
 -0.11470377E+000 -0.18790010E+000 -0.31973740E+000
 -0.10497278E+000  0.11408460E+000 -0.22101159E+000
 -0.13220332E+000  0.12544508E+000 -0.11427278E+000
 -0.32003653E+000  0.29072624E+000 -0.11800328E+000
 -0.48928086E+000  0.46333337E+000  0.71949728E-002
 -0.38406886E+000  0.35682896E+000  0.16720768E+000
 -0.19435475E+000  0.19186794E+000  0.18669424E+000
 -0.17170155E+000  0.17189583E+000  0.25320741E+000
 -0.69941910E-001 -0.72886508E-001  0.51023959E-001
VECTORS Vtot_CP double
 -0.47396029E+000 -0.13969425E+002  0.49426940E+000
 -0.22949428E+002 -0.32057648E+002  0.48328986E+000
 -0.41507017E+002 -0.46441701E+002 -0.63565873E+000
 -0.53469436E+002 -0.57521048E+002 -0.58831402E+000
 -0.56947927E+002 -0.62170765E+002  0.10784201E+000
 -0.53145372E+002 -0.59028609E+002  0.61643557E+000
 -0.40896699E+002 -0.48133856E+002  0.86795643E+000
 -0.22123263E+002 -0.32600399E+002  0.50259301E+000
  0.13097298E+001 -0.13513660E+002 -0.25497207E-001
VECTORS Vstr_CP double
  0.17559257E+002  0.13781525E+002 -0.81400680E+000
  0.40044455E+002  0.32171733E+002 -0.70430145E+000
  0.58574814E+002  0.46567146E+002  0.52138595E+000
  0.70349400E+002  0.57811774E+002  0.47031074E+000
  0.73658646E+002  0.62634098E+002 -0.10064703E+000
  0.69961303E+002  0.59385438E+002 -0.44922789E+000
  0.57902345E+002  0.48325724E+002 -0.68126218E+000
  0.39151561E+002  0.32772295E+002 -0.24938560E+000
  0.15820328E+002  0.13440774E+002  0.76521167E-001
VECTORS Vwnd_CP double
  0.17200000E+002  0.00000000E+000  0.00000000E+000
  0.17200000E+002  0.00000000E+000  0.00000000E+000
  0.17200000E+002  0.00000000E+000  0.00000000E+000
  0.17200000E+002  0.00000000E+000  0.00000000E+000
  0.17200000E+002  0.00000000E+000  0.00000000E+000
  0.17200000E+002  0.00000000E+000  0.00000000E+000
  0.17200000E+002  0.00000000E+000  0.00000000E+000
  0.17200000E+002  0.00000000E+000  0.00000000E+000
  0.17200000E+002  0.00000000E+000  0.00000000E+000
VECTORS Tangent double
 -0.56245594E+000 -0.82682719E+000  0.34837200E-003
 -0.76075139E+000 -0.64903719E+000  0.28373256E-002
 -0.76694691E+000 -0.64170942E+000  0.12046757E-002
 -0.76502012E+000 -0.64400607E+000 -0.62693700E-003
 -0.76135653E+000 -0.64833336E+000 -0.30734147E-003
 -0.76287433E+000 -0.64654677E+000 -0.18260802E-003
 -0.76408260E+000 -0.64511841E+000  0.11607235E-003
 -0.76177713E+000 -0.64783915E+000  0.18363096E-003
 -0.76142411E+000 -0.64824705E+000 -0.30131504E-002
VECTORS Normal double
  0.43806021E+000 -0.29763663E+000  0.84824271E+000
  0.41695354E+000 -0.48536129E+000  0.76848823E+000
  0.45449723E+000 -0.54187077E+000  0.70697124E+000
  0.57924688E+000 -0.68851694E+000  0.43636850E+000
  0.64832995E+000 -0.76135080E+000 -0.36387638E-002
  0.58068383E+000 -0.68503700E+000 -0.43992114E+000
  0.45752892E+000 -0.54202717E+000 -0.70489278E+000
  0.41600431E+000 -0.48938585E+000 -0.76644759E+000
  0.33419365E+000 -0.38854901E+000 -0.85868753E+000
VECTORS Orth double
  0.70124644E+000 -0.47725175E+000 -0.52960758E+000
  0.49740032E+000 -0.58581152E+000 -0.63985763E+000
  0.45301733E+000 -0.54275693E+000 -0.70724127E+000
  0.28145562E+000 -0.33346753E+000 -0.89976783E+000
 -0.21251373E-002  0.29696553E-002 -0.99999333E+000
 -0.28430450E+000  0.33571058E+000 -0.89803639E+000
 -0.45480223E+000  0.53854320E+000 -0.70931386E+000
 -0.49662462E+000  0.58378586E+000 -0.64230683E+000
 -0.55547090E+000  0.65483236E+000 -0.51249064E+000
