# vtk DataFile Version 2.0
BldPointCP.BldC
ASCII
 
DATASET POLYDATA
POINTS 9 double
  0.88658941E+001 -0.75238086E+001  0.10622753E+003
  0.21267578E+002 -0.18646379E+002  0.94443065E+002
  0.31283722E+002 -0.27569756E+002  0.82368674E+002
  0.37986535E+002 -0.33468422E+002  0.70123840E+002
  0.40059686E+002 -0.35212484E+002  0.58070998E+002
  0.37896557E+002 -0.33235651E+002  0.46046891E+002
  0.31177159E+002 -0.27347258E+002  0.33770231E+002
  0.21141449E+002 -0.18577696E+002  0.21585673E+002
  0.86054910E+001 -0.75705522E+001  0.98431924E+001
  
POINT_DATA 9
SCALARS Gamma_LL double
LOOKUP_TABLE default
  0.61479691E+002
  0.11027034E+003
  0.87574107E+002
  0.96292419E+002
  0.10462984E+003
  0.10662211E+003
  0.10154956E+003
  0.11473626E+003
  0.33316355E+002
VECTORS Vind_CP double
 -0.16833740E+000 -0.27823493E+000 -0.45411285E+000
 -0.21181961E+000  0.16690427E+000 -0.34086605E+000
 -0.33144872E+000  0.27906632E+000 -0.26924162E+000
 -0.68650943E+000  0.53294008E+000 -0.22543189E+000
 -0.95103750E+000  0.67993404E+000  0.24131624E-001
 -0.78902903E+000  0.61185667E+000  0.30931386E+000
 -0.43956979E+000  0.36229643E+000  0.37557510E+000
 -0.31985558E+000  0.23897581E+000  0.38143071E+000
 -0.10725251E+000 -0.34029645E-001  0.62945633E-001
VECTORS Vtot_CP double
  0.65987159E+000 -0.16506433E+002  0.59888422E+000
 -0.18872703E+002 -0.37897005E+002  0.11906161E+001
 -0.35314041E+002 -0.54780971E+002  0.30746318E+000
 -0.45943767E+002 -0.66664263E+002  0.57132610E-001
 -0.48531107E+002 -0.71424114E+002  0.60313582E+000
 -0.44645118E+002 -0.68264693E+002  0.10042096E+001
 -0.33697729E+002 -0.56242488E+002  0.10650009E+001
 -0.17213144E+002 -0.38087735E+002  0.66990484E+000
  0.33419483E+001 -0.15653200E+002  0.47925037E-001
VECTORS Vstr_CP double
  0.16371791E+002  0.16228198E+002 -0.10529971E+001
  0.35860884E+002  0.38063909E+002 -0.15314822E+001
  0.52182592E+002  0.55060037E+002 -0.57670480E+000
  0.62457257E+002  0.67197203E+002 -0.28256449E+000
  0.64780069E+002  0.72104048E+002 -0.57900420E+000
  0.61056089E+002  0.68876550E+002 -0.69489570E+000
  0.50458159E+002  0.56604785E+002 -0.68942576E+000
  0.34093289E+002  0.38326711E+002 -0.28847414E+000
  0.13750799E+002  0.15619170E+002  0.15020595E-001
VECTORS Vwnd_CP double
  0.17200000E+002  0.00000000E+000  0.00000000E+000
  0.17200000E+002  0.00000000E+000  0.00000000E+000
  0.17200000E+002  0.00000000E+000  0.00000000E+000
  0.17200000E+002  0.00000000E+000  0.00000000E+000
  0.17200000E+002  0.00000000E+000  0.00000000E+000
  0.17200000E+002  0.00000000E+000  0.00000000E+000
  0.17200000E+002  0.00000000E+000  0.00000000E+000
  0.17200000E+002  0.00000000E+000  0.00000000E+000
  0.17200000E+002  0.00000000E+000  0.00000000E+000
VECTORS Tangent double
 -0.43121845E+000 -0.90224665E+000 -0.12776543E-002
 -0.65461622E+000 -0.75593241E+000  0.66176785E-002
 -0.67190173E+000 -0.74062597E+000  0.46074877E-002
 -0.67131786E+000 -0.74116925E+000 -0.68729539E-003
 -0.66365624E+000 -0.74803769E+000 -0.87827553E-004
 -0.66528833E+000 -0.74658562E+000  0.11602583E-002
 -0.66575093E+000 -0.74617327E+000  0.10731221E-002
 -0.66049505E+000 -0.75083020E+000  0.55098723E-003
 -0.65998141E+000 -0.75125249E+000 -0.66511498E-002
VECTORS Normal double
  0.48343429E+000 -0.23224707E+000  0.84400983E+000
  0.48372885E+000 -0.41213630E+000  0.77210755E+000
  0.52194882E+000 -0.46908413E+000  0.71241105E+000
  0.67016972E+000 -0.60740520E+000  0.42653424E+000
  0.74797129E+000 -0.66359575E+000 -0.13402538E-001
  0.67175929E+000 -0.59928669E+000 -0.43542498E+000
  0.52856005E+000 -0.47260616E+000 -0.70517210E+000
  0.47986252E+000 -0.42269267E+000 -0.76880613E+000
  0.38888653E+000 -0.33403847E+000 -0.85859511E+000
VECTORS Orth double
  0.76180177E+000 -0.36333495E+000 -0.53632619E+000
  0.58093374E+000 -0.50863529E+000 -0.63545742E+000
  0.52546883E+000 -0.48107509E+000 -0.70174729E+000
  0.31655153E+000 -0.28587945E+000 -0.90447115E+000
 -0.99673219E-002  0.89603707E-002 -0.99991018E+000
 -0.32577736E+000  0.28890375E+000 -0.90022427E+000
 -0.52668773E+000  0.46890177E+000 -0.70903538E+000
 -0.57747576E+000  0.50752824E+000 -0.63948169E+000
 -0.64279998E+000  0.56924336E+000 -0.51261115E+000
