<?xml version="1.0"?>
<VTKFile type="PolyData" version="0.1" byte_order="LittleEndian">
  <PolyData>
    <Piece NumberOfPoints="    165" NumberOfVerts="  0" NumberOfLines="      0"
           NumberOfStrips="  0" NumberOfPolys="      0">
      <Points>
        <DataArray type="Float32" NumberOfComponents="3" format="ascii">
                       0.07041                       0.01298                     113.18156
                      -6.85069                      -0.86853                     109.53664
                     -13.29525                      -1.69016                     105.88972
                     -19.26217                      -2.45247                     102.23917
                     -20.95919                      -2.66967                     101.14348
                     -24.75003                      -3.15560                      98.58337
                     -29.75362                      -3.79827                      94.91544
                     -34.27325                      -4.38031                      91.23767
                     -38.31122                      -4.90179                      87.55456
                     -41.87054                      -5.36280                      83.87048
                     -44.95368                      -5.76331                      80.18806
                     -47.56269                      -6.10328                      76.50870
                     -49.69828                      -6.38251                      72.83220
                     -51.36032                      -6.60070                      69.15779
                     -52.54900                      -6.75751                      65.48482
                     -53.26347                      -6.85248                      61.81237
                     -53.50206                      -6.88517                      58.13987
                     -53.26418                      -6.85537                      54.46730
                     -52.55021                      -6.76301                      50.79473
                     -51.36195                      -6.60830                      47.12159
                     -49.70087                      -6.39159                      43.44675
                     -47.56749                      -6.11312                      39.76905
                     -44.96198                      -5.77313                      36.08741
                     -41.88249                      -5.37181                      32.40228
                     -38.32558                      -4.90926                      28.71640
                     -34.28846                      -4.38578                      25.03307
                     -29.76896                      -3.80186                      21.35593
                     -24.76755                      -3.15824                      17.68575
                     -20.98204                      -2.67263                      15.11813
                     -19.28853                      -2.45590                      14.01729
                     -13.33472                      -1.69587                      10.34624
                      -6.90539                      -0.87754                       6.67339
                       0.00019                       0.00005                       3.00014
                       0.07041                       0.01298                     113.18156
                       2.74807                       6.43400                     109.49695
                       5.23859                      12.40767                     105.80489
                       7.54607                      17.93833                     102.11581
                       8.20329                      19.51242                     101.01184
                       9.67622                      23.03831                      98.44863
                      11.63019                      27.71202                      94.80672
                      13.40274                      31.94704                      91.16832
                      14.98938                      35.73302                      87.51942
                      16.38714                      39.06402                      83.85506
                      17.59495                      41.93925                      80.17780
                      18.61322                      44.36147                      76.49325
                      19.44324                      46.33511                      72.80692
                      20.08651                      47.86454                      69.12247
                      20.54425                      48.95308                      65.44151
                      20.81757                      49.60331                      61.76408
                      20.90733                      49.81708                      58.08906
                      20.81387                      49.59486                      54.41461
                      20.53703                      48.93594                      50.73895
                      20.07618                      47.83850                      47.06092
                      19.43055                      46.30060                      43.38024
                      18.59921                      44.31996                      39.69764
                      17.58080                      41.89333                      36.01561
                      16.37407                      39.01767                      32.33783
                      14.97836                      35.69132                      28.66781
                      13.39385                      31.91465                      25.00751
                      11.62212                      27.69139                      21.35418
                       9.66555                      23.02743                      17.70023
                       8.18705                      19.50318                      15.13742
                       7.52604                      17.92759                      14.03725
                       5.20299                      12.39091                      10.36489
                       2.69513                       6.41589                       6.68429
                       0.00019                       0.00005                       3.00014
                       0.07041                       0.01298                     113.18156
                       4.26746                      -5.53700                     109.49947
                       8.17164                     -10.70085                     105.81023
                      11.78760                     -15.48127                     102.12316
                      12.81699                     -16.84152                     101.01928
                      15.12253                     -19.88715                      98.45424
                      18.17854                     -23.92233                      94.80703
                      20.94930                     -27.57809                      91.16384
                      23.42928                     -30.84685                      87.51282
                      25.61487                     -33.72395                      83.84924
                      27.50483                     -36.20842                      80.17458
                      29.09960                     -38.30178                      76.49300
                      30.40065                     -40.00703                      72.80896
                      31.40983                     -41.32764                      69.12585
                      32.12876                     -42.26670                      65.44551
                      32.55891                     -42.82693                      61.76831
                      32.70144                     -43.01035                      58.09336
                      32.55671                     -42.81758                      54.41895
                      32.12431                     -42.24806                      50.74340
                      31.40308                     -41.29994                      47.06575
                      30.39169                     -39.97101                      43.38607
                      29.08875                     -38.25896                      39.70554
                      27.49261                     -36.16122                      36.02663
                      25.60223                     -33.67617                      32.35210
                      23.41756                     -30.80361                      28.68379
                      20.93942                     -27.54465                      25.02198
                      18.16999                     -23.90215                      21.36367
                      15.11179                     -19.87944                      17.70365
                      12.80002                     -16.83838                      15.13827
                      11.76617                     -15.47823                      14.03787
                       8.13270                     -10.69763                      10.36625
                       4.21134                      -5.53851                       6.68626
                       0.00019                       0.00005                       3.00014
                      -0.09910                      -0.01243                      15.12055
                      -2.09824                      -0.26623                      15.12080
                      -4.19655                      -0.53294                      15.12139
                      -6.29483                      -0.79992                      15.12208
                      -8.39306                      -1.06713                      15.12263
                     -10.49127                      -1.33453                      15.12287
                     -12.58946                      -1.60207                      15.12271
                     -14.68762                      -1.86969                      15.12208
                     -16.78576                      -2.13736                      15.12099
                     -18.88391                      -2.40502                      15.11960
                     -20.98204                      -2.67263                      15.11813
                       0.03882                       0.09234                      15.12055
                       0.81882                       1.95046                      15.12476
                       1.63754                       3.90078                      15.12903
                       2.45625                       5.85110                      15.13291
                       3.27496                       7.80142                      15.13621
                       4.09367                       9.75173                      15.13878
                       4.91237                      11.70204                      15.14050
                       5.73106                      13.65234                      15.14129
                       6.54974                      15.60264                      15.14111
                       7.36840                      17.55291                      15.13985
                       8.18705                      19.50318                      15.13742
                       0.06060                      -0.07949                      15.12055
                       1.27983                      -1.68394                      15.12477
                       2.55967                      -3.36794                      15.12903
                       3.83959                      -5.05187                      15.13290
                       5.11959                      -6.73574                      15.13620
                       6.39963                      -8.41957                      15.13876
                       7.67971                     -10.10336                      15.14049
                       8.95981                     -11.78712                      15.14132
                      10.23991                     -13.47087                      15.14124
                      11.51999                     -15.15462                      15.14022
                      12.80002                     -16.83838                      15.13827
                      -0.07722                      -0.00851                     101.06342
                      -2.07626                      -0.26264                     101.06615
                      -4.17447                      -0.52962                     101.07102
                      -6.27264                      -0.79680                     101.07760
                      -8.37078                      -1.06414                     101.08556
                     -10.46889                      -1.33162                     101.09462
                     -12.56698                      -1.59919                     101.10446
                     -14.66505                      -1.86682                     101.11475
                     -16.76310                      -2.13447                     101.12508
                     -18.86115                      -2.40209                     101.13489
                     -20.95919                      -2.66967                     101.14348
                       0.06070                       0.09627                     101.06342
                       0.84037                       1.95480                     101.05920
                       1.65866                       3.90560                     101.05441
                       2.47690                       5.85641                     101.04913
                       3.29509                       7.80724                     101.04337
                       4.11324                       9.75808                     101.03716
                       4.93134                      11.70893                     101.03073
                       5.74941                      13.65979                     101.02439
                       6.56742                      15.61066                     101.01860
                       7.38539                      17.56153                     101.01411
                       8.20329                      19.51242                     101.01184
                       0.08248                      -0.07556                     101.06342
                       1.30198                      -1.68013                     101.06004
                       2.58185                      -3.36443                     101.05616
                       3.86159                      -5.04884                     101.05180
                       5.14121                      -6.73333                     101.04696
                       6.42073                      -8.41789                     101.04167
                       7.70015                     -10.10251                     101.03613
                       8.97948                     -11.78719                     101.03060
                      10.25874                     -13.47192                     101.02552
                      11.53791                     -15.15669                     101.02150
                      12.81699                     -16.84152                     101.01928
        </DataArray>
      </Points>
      <PointData>
        <DataArray type="Float32" Name="TranslationalVelocity" NumberOfComponents="3" format="ascii">
                       1.98089                       0.39820                      -0.01234
                       3.20170                     -12.21786                       0.70804
                       4.27717                     -23.99713                       1.45029
                       5.26799                     -34.94762                       2.10866
                       5.54995                     -38.07249                       2.28923
                       6.21472                     -45.06931                       2.62935
                       7.23670                     -54.32425                       2.85368
                       8.36360                     -62.70580                       2.79260
                       9.57307                     -70.21892                       2.52729
                      10.78557                     -76.87274                       2.18545
                      11.90366                     -82.67363                       1.87766
                      12.84894                     -87.62258                       1.66264
                      13.58621                     -91.71207                       1.54339
                      14.11619                     -94.92870                       1.49348
                      14.45836                     -97.25753                       1.48126
                      14.64404                     -98.68151                       1.48123
                      14.70015                     -99.18510                       1.48150
                      14.63206                     -98.76036                       1.48000
                      14.42523                     -97.40704                       1.47322
                      14.04551                     -95.13403                       1.44539
                      13.45849                     -91.95406                       1.36660
                      12.64994                     -87.87970                       1.20467
                      11.63780                     -82.92280                       0.94437
                      10.48255                     -77.09026                       0.61204
                       9.26957                     -70.38528                       0.28073
                       8.06601                     -62.81532                       0.03543
                       6.89256                     -54.39184                      -0.07062
                       5.71189                     -45.13093                      -0.05695
                       4.84294                     -38.16122                      -0.02158
                       4.45290                     -35.05647                      -0.01044
                       3.07833                     -24.18754                       0.00929
                       1.59195                     -12.50942                       0.00708
                       0.00063                       0.00026                       0.00122
                       1.98089                       0.39820                      -0.01234
                     -10.01708                       5.16079                      -0.45590
                     -21.24565                       9.55513                      -0.94145
                     -31.60542                      13.70128                      -1.22209
                     -34.53450                      14.91394                      -1.24088
                     -41.02909                      17.75928                      -1.07638
                     -49.50887                      21.79729                      -0.46921
                     -57.08652                      25.63877                       0.28423
                     -63.81716                      29.08252                       0.90606
                     -69.76821                      31.94003                       1.21180
                     -74.99036                      34.10891                       1.17273
                     -79.49483                      35.61053                       0.89653
                     -83.25838                      36.55755                       0.53819
                     -86.24328                      37.09081                       0.22113
                     -88.41168                      37.33879                       0.00887
                     -89.73466                      37.39655                      -0.09373
                     -90.19563                      37.31831                      -0.12317
                     -89.79031                      37.11563                      -0.13478
                     -88.52566                      36.76321                      -0.18114
                     -86.41659                      36.20930                      -0.29591
                     -83.48327                      35.38958                      -0.48574
                     -79.75143                      34.22688                      -0.72274
                     -75.24999                      32.63430                      -0.94003
                     -70.00262                      30.54156                      -1.04946
                     -64.01726                      27.92548                      -0.98128
                     -57.28088                      24.82474                      -0.72703
                     -49.76639                      21.32890                      -0.36035
                     -41.44688                      17.53660                      -0.00483
                     -35.13461                      14.74434                       0.17250
                     -32.30545                      13.51444                       0.22436
                     -22.34126                       9.25977                       0.30053
                     -11.56161                       4.77206                       0.19886
                       0.00063                       0.00026                       0.00122
                       1.98089                       0.39820                      -0.01234
                      11.62604                       7.92436                      -0.38908
                      20.51164                      14.94675                      -0.83877
                      28.76438                      21.39536                      -1.12556
                      31.13328                      23.20707                      -1.15401
                      36.52044                      27.16142                      -1.02670
                      43.82798                      32.18684                      -0.49197
                      50.58854                      36.59348                       0.19800
                      56.69204                      40.52840                       0.79228
                      62.03099                      44.13625                       1.11773
                      66.53809                      47.50541                       1.13416
                      70.20455                      50.63777                       0.91959
                      73.07220                      53.46047                       0.60519
                      75.20676                      55.86373                       0.30855
                      76.67388                      57.73305                       0.09974
                      77.52692                      58.97076                      -0.00598
                      77.79849                      59.51223                      -0.03851
                      77.49356                      59.33477                      -0.05180
                      76.59263                      58.45525                      -0.09892
                      75.05522                      56.92483                      -0.21049
                      72.83300                      54.81322                      -0.38315
                      69.87641                      52.19581                      -0.57733
                      66.14131                      49.13997                      -0.72528
                      61.60797                      45.68113                      -0.76137
                      56.28851                      41.81231                      -0.65560
                      50.22030                      37.49245                      -0.42875
                      43.45576                      32.66356                      -0.15221
                      36.03767                      27.28036                       0.09354
                      30.46546                      23.17319                       0.22141
                      27.98079                      21.33083                       0.26626
                      19.28523                      14.81781                       0.34695
                       9.96908                       7.70349                       0.24848
                       0.00063                       0.00026                       0.00122
                       0.01284                      -0.17923                       0.00349
                       0.47040                      -3.79087                       0.00416
                       0.95235                      -7.59036                       0.00869
                       1.43579                     -11.39750                       0.01461
                       1.92052                     -15.21109                       0.01978
                       2.40629                     -19.02995                       0.02252
                       2.89289                     -22.85286                       0.02166
                       3.38010                     -26.67864                       0.01655
                       3.86769                     -30.50609                       0.00697
                       4.35536                     -34.33401                      -0.00618
                       4.84294                     -38.16122                      -0.02158
                      -0.17589                       0.06919                       0.00349
                      -3.52555                       1.47546                       0.07886
                      -7.04018                       2.95100                       0.15430
                     -10.55371                       4.42607                       0.22057
                     -14.06634                       5.90076                       0.27294
                     -17.57827                       7.37514                       0.30770
                     -21.08970                       8.84927                       0.32231
                     -24.60084                      10.32320                       0.31553
                     -28.11190                      11.79701                       0.28749
                     -31.62308                      13.27069                       0.23907
                     -35.13461                      14.74434                       0.17250
                       0.13361                       0.10842                       0.00349
                       3.02904                       2.30928                       0.08009
                       6.07116                       4.62193                       0.15680
                       9.11594                       6.93685                       0.22465
                      12.16291                       9.25365                       0.27923
                      15.21162                      11.57195                       0.31716
                      18.26162                      13.89139                       0.33617
                      21.31247                      16.21159                       0.33529
                      24.36369                      18.53219                       0.31482
                      27.41483                      20.85285                       0.27601
                      30.46546                      23.17319                       0.22141
                       0.70524                      -0.06474                       0.00434
                       1.16500                      -3.68622                       0.09040
                       1.64894                      -7.49352                       0.24031
                       2.13416                     -11.30621                       0.43955
                       2.62049                     -15.12344                       0.67653
                       3.10774                     -18.94431                       0.94008
                       3.59571                     -22.76796                       1.21940
                       4.08417                     -26.59349                       1.50410
                       4.57288                     -30.42002                       1.78414
                       5.06155                     -34.24665                       2.04920
                       5.54995                     -38.07249                       2.28923
                       0.51652                       0.18368                       0.00434
                      -2.84305                       1.59617                      -0.15434
                      -6.36709                       3.07765                      -0.32457
                      -9.88925                       4.55817                      -0.49437
                     -13.41000                       6.03794                      -0.65913
                     -16.92980                       7.51718                      -0.81387
                     -20.44920                       8.99612                      -0.95332
                     -23.96874                      10.47501                      -1.07189
                     -27.48903                      11.95412                      -1.16376
                     -31.01071                      13.43367                      -1.22235
                     -34.53450                      14.91394                      -1.24088
                       0.82602                       0.22291                       0.00434
                       3.73073                       2.42696                      -0.13149
                       6.77922                       4.73970                      -0.27887
                       9.82718                       7.05170                      -0.42812
                      12.87447                       9.36292                      -0.57560