# vtk DataFile Version 2.0
BldPointCP.BldC
ASCII
 
DATASET POLYDATA
POINTS 9 double
  0.64426929E+001 -0.94872069E+001  0.10634623E+003
  0.15770857E+002 -0.23268727E+002  0.94566656E+002
  0.23224228E+002 -0.34265081E+002  0.82337860E+002
  0.28267949E+002 -0.41700450E+002  0.70081970E+002
  0.29895227E+002 -0.44098821E+002  0.58093437E+002
  0.28265703E+002 -0.41694206E+002  0.46106546E+002
  0.23222079E+002 -0.34254961E+002  0.33850979E+002
  0.15768700E+002 -0.23261713E+002  0.21615727E+002
  0.64311956E+001 -0.94873955E+001  0.98331277E+001
  
POINT_DATA 9
SCALARS Gamma_LL double
LOOKUP_TABLE default
  0.55517334E+001
  0.11524444E+002
  0.84253451E+001
  0.98669053E+001
  0.11443381E+002
  0.10857547E+002
  0.10153410E+002
  0.12534465E+002
  0.33987728E+001
VECTORS Vind_CP double
 -0.12662182E-001 -0.11944428E-001 -0.24460599E-001
 -0.85582131E-002  0.12479083E-001 -0.21800962E-001
 -0.91726035E-002  0.10459339E-001 -0.10072862E-001
 -0.18751542E-001  0.22586088E-001 -0.96530030E-002
 -0.28842191E-001  0.36378406E-001  0.17031508E-003
 -0.21787564E-001  0.26699793E-001  0.12174608E-001
 -0.13025517E-001  0.15997058E-001  0.15367986E-001
 -0.13864573E-001  0.18212173E-001  0.26120399E-001
 -0.10822184E-001 -0.13388509E-001  0.87237345E-002
VECTORS Vtot_CP double
 -0.62425138E+000 -0.11685876E+002  0.39893505E+000
 -0.25277597E+002 -0.27770693E+002  0.13239535E+000
 -0.45361942E+002 -0.40618123E+002 -0.56917946E+000
 -0.58637718E+002 -0.50173723E+002 -0.42329124E+000
 -0.62748470E+002 -0.53669356E+002 -0.55635783E-001
 -0.58499318E+002 -0.50614224E+002  0.22433834E+000
 -0.45156719E+002 -0.41312838E+002  0.35332691E+000
 -0.25047302E+002 -0.28178720E+002 -0.88024809E-002
  0.50156209E-001 -0.11631669E+002 -0.18334732E+000
VECTORS Vstr_CP double
  0.17811589E+002  0.11673932E+002 -0.42339565E+000
  0.42469038E+002  0.27783172E+002 -0.15419631E+000
  0.62552769E+002  0.40628582E+002  0.55910660E+000
  0.75818966E+002  0.50196309E+002  0.41363824E+000
  0.79919628E+002  0.53705735E+002  0.55806098E-001
  0.75677530E+002  0.50640924E+002 -0.21216373E+000
  0.62343694E+002  0.41328835E+002 -0.33795892E+000
  0.42233437E+002  0.28196933E+002  0.34922880E-001
  0.17139022E+002  0.11618281E+002  0.19207105E+000
VECTORS Vwnd_CP double
  0.17200000E+002  0.00000000E+000  0.00000000E+000
  0.17200000E+002  0.00000000E+000  0.00000000E+000
  0.17200000E+002  0.00000000E+000  0.00000000E+000
  0.17200000E+002  0.00000000E+000  0.00000000E+000
  0.17200000E+002  0.00000000E+000  0.00000000E+000
  0.17200000E+002  0.00000000E+000  0.00000000E+000
  0.17200000E+002  0.00000000E+000  0.00000000E+000
  0.17200000E+002  0.00000000E+000  0.00000000E+000
  0.17200000E+002  0.00000000E+000  0.00000000E+000
VECTORS Tangent double
 -0.65195512E+000 -0.75825751E+000  0.25746211E-003
 -0.82760205E+000 -0.56131505E+000  0.50088062E-003
 -0.82818773E+000 -0.56045074E+000  0.23491759E-003
 -0.82777157E+000 -0.56106526E+000  0.38423743E-004
 -0.82721303E+000 -0.56188842E+000 -0.99305778E-004
 -0.82767077E+000 -0.56121389E+000 -0.26216025E-003
 -0.82799501E+000 -0.56073546E+000 -0.10624185E-003
 -0.82759942E+000 -0.56131916E+000  0.12652144E-004
 -0.82755884E+000 -0.56137863E+000 -0.62924380E-003
VECTORS Normal double
  0.39893330E+000 -0.34271686E+000  0.85052770E+000
  0.36177973E+000 -0.53272479E+000  0.76506191E+000
  0.39788444E+000 -0.58766539E+000  0.70451215E+000
  0.50294114E+000 -0.74198737E+000  0.44328879E+000
  0.56188842E+000 -0.82721298E+000 -0.30493125E-003
  0.50303700E+000 -0.74166498E+000 -0.44371932E+000
  0.39805323E+000 -0.58764117E+000 -0.70443700E+000
  0.36171793E+000 -0.53332799E+000 -0.76467078E+000
  0.28791325E+000 -0.42346583E+000 -0.85894275E+000
VECTORS Orth double
  0.64483078E+000 -0.55460861E+000 -0.52593018E+000
  0.42917394E+000 -0.63334802E+000 -0.64395653E+000
  0.39470630E+000 -0.58356178E+000 -0.70969189E+000
  0.24868543E+000 -0.36696118E+000 -0.89637885E+000
 -0.89190309E-004  0.30804187E-003 -0.99999995E+000
 -0.24882701E+000  0.36738538E+000 -0.89616578E+000
 -0.39494037E+000  0.58331261E+000 -0.70976651E+000
 -0.42923111E+000  0.63283651E+000 -0.64442114E+000
 -0.48192564E+000  0.71100684E+000 -0.51207124E+000
