<?xml version="1.0"?>
<VTKFile type="PolyData" version="0.1" byte_order="LittleEndian">
  <PolyData>
    <Piece NumberOfPoints="     10" NumberOfVerts="  0" NumberOfLines="      9"
           NumberOfStrips="  0" NumberOfPolys="      0">
      <Points>
        <DataArray type="Float32" NumberOfComponents="3" format="ascii">
                      -0.09807                      -0.02141                      15.12067
                      -2.38266                      -0.52343                      15.11761
                      -4.66694                      -1.02692                      15.11593
                      -6.95065                      -1.53300                      15.11556
                      -9.23532                      -2.03484                      15.12309
                     -11.51758                      -2.54800                      15.12351
                     -13.80137                      -3.05358                      15.12272
                     -16.08510                      -3.55931                      15.12135
                     -18.36883                      -4.06507                      15.11968
                     -20.65256                      -4.57074                      15.11802
        </DataArray>
      </Points>
      <PointData>
        <DataArray type="Float32" Name="TranslationalVelocity" NumberOfComponents="3" format="ascii">
                       0.03053                      -0.17895                       0.00141
                       0.93832                      -4.31078                      -0.00017
                       1.85187                      -8.45619                      -0.00113
                       2.77277                     -12.61252                      -0.00175
                       3.68818                     -16.78064                      -0.00189
                       4.62660                     -20.95532                      -0.00167
                       5.55190                     -25.13535                      -0.00033
                       6.47825                     -29.31865                       0.00260
                       7.40496                     -33.50323                       0.00806
                       8.33139                     -37.68711                       0.01728
        </DataArray>
        <DataArray type="Float32" Name="RotationalVelocity" NumberOfComponents="3" format="ascii">
                       0.02572                       0.00475                       1.80406
                       0.02565                       0.00506                       1.80982
                       0.02561                       0.00525                       1.81512
                       0.02557                       0.00539                       1.81967
                       0.02552                       0.00553                       1.82345
                       0.02536                       0.00608                       1.82876
                       0.02521                       0.00662                       1.83028
                       0.02500                       0.00744                       1.83106
                       0.02470                       0.00871                       1.83110
                       0.02431                       0.01038                       1.83040
        </DataArray>
        <DataArray type="Float32" Name="TranslationalAcceleration" NumberOfComponents="3" format="ascii">
                       0.18847                       0.04055                      -0.11195
                       1.32922                       0.24355                      -0.12685
                       2.16877                       0.35011                      -0.16480
                       3.01400                       0.43713                      -0.21361
                       3.86478                       0.48518                      -0.27877
                      -2.10220                      -1.11966                      -0.36960
                      -1.30126                      -1.11355                      -0.38523
                      -0.52167                      -1.11409                      -0.04677
                       0.27523                      -1.12351                       0.40940
                       1.04651                      -1.12979                       0.66949
        </DataArray>
        <DataArray type="Float32" Name="OrientationX" NumberOfComponents="3" format="ascii">
                      -0.00772                      -0.00156                       0.99997
                      -0.00996                      -0.00170                       0.99995
                      -0.01007                      -0.00199                       0.99995
                      -0.00846                      -0.00252                       0.99996
                       0.00011                      -0.00018                       1.00000
                      -0.00015                      -0.00105                       1.00000
                      -0.00007                      -0.00137                       1.00000
                       0.00010                      -0.00160                       1.00000
                       0.00034                      -0.00177                       1.00000
                       0.00023                      -0.00044                       1.00000
        </DataArray>
        <DataArray type="Float32" Name="OrientationY" NumberOfComponents="3" format="ascii">
                      -0.21531                       0.97655                      -0.00014
                      -0.21247                       0.97717                      -0.00045
                      -0.21320                       0.97701                      -0.00021
                      -0.21592                       0.97641                       0.00063
                      -0.21253                       0.97715                       0.00020
                      -0.21253                       0.97715                       0.00100
                      -0.21252                       0.97715                       0.00132
                      -0.21252                       0.97716                       0.00159
                      -0.21252                       0.97716                       0.00180
                      -0.21204                       0.97726                       0.00047
        </DataArray>
        <DataArray type="Float32" Name="OrientationZ" NumberOfComponents="3" format="ascii">
                      -0.97652                      -0.21530                      -0.00788
                      -0.97712                      -0.21246                      -0.01009
                      -0.97696                      -0.21319                      -0.01026
                      -0.97637                      -0.21591                      -0.00881
                      -0.97715                      -0.21253                       0.00007
                      -0.97716                      -0.21253                      -0.00037
                      -0.97716                      -0.21252                      -0.00036
                      -0.97716                      -0.21252                      -0.00024
                      -0.97716                      -0.21252                      -0.00004
                      -0.97726                      -0.21204                       0.00013
        </DataArray>
      </PointData>
      <Lines>
        <DataArray type="Int32" Name="connectivity" format="ascii">
      0      1
      1      2
      2      3
      3      4
      4      5
      5      6
      6      7
      7      8
      8      9
        </DataArray>
        <DataArray type="Int32" Name="offsets" format="ascii">
      2
      4
      6
      8
     10
     12
     14
     16
     18
        </DataArray>
      </Lines>
    </Piece>
  </PolyData>
</VTKFile>
