# vtk DataFile Version 2.0
BldPointCP.BldB
ASCII
 
DATASET POLYDATA
POINTS 9 double
  0.46534519E+001  0.10496139E+002  0.10633208E+003
  0.11352298E+002  0.25738237E+002  0.94559428E+002
  0.16718346E+002  0.37908134E+002  0.82351142E+002
  0.20341546E+002  0.46116350E+002  0.70089948E+002
  0.21502708E+002  0.48749184E+002  0.58091185E+002
  0.20332437E+002  0.46095454E+002  0.46096575E+002
  0.16709325E+002  0.37883045E+002  0.33834159E+002
  0.11345120E+002  0.25722727E+002  0.21609186E+002
  0.46257835E+001  0.10487060E+002  0.98360515E+001
  
POINT_DATA 9
SCALARS Gamma_LL double
LOOKUP_TABLE default
  0.57999852E+002
  0.30493256E+002
  0.16374694E+002
  0.23384678E+002
  0.31974723E+002
  0.28167340E+002
  0.22576558E+002
  0.31041105E+002
  0.33225043E+002
VECTORS Vind_CP double
 -0.43773842E-002 -0.34935410E-001 -0.18799502E+000
 -0.23861239E-001 -0.35131234E-001 -0.58827368E-001
 -0.10317561E-001 -0.21330107E-001 -0.62035457E-002
 -0.30144682E-001 -0.87800074E-001 -0.22444272E-001
 -0.61215183E-001 -0.16903267E+000  0.13193528E-002
 -0.41170149E-001 -0.11496593E+000  0.38071296E-001
 -0.20915105E-001 -0.50999429E-001  0.32064716E-001
 -0.31831099E-001 -0.64971705E-001  0.70293741E-001
 -0.34568097E-001 -0.31839407E-001  0.85001489E-001
VECTORS Vtot_CP double
  0.35056010E+002 -0.86136486E+001  0.46118883E+000
  0.63008295E+002 -0.21529908E+002  0.27404902E+000
  0.84937272E+002 -0.32039045E+002 -0.70996004E+000
  0.10009100E+003 -0.37765218E+002 -0.48309250E+000
  0.10519392E+003 -0.38917882E+002  0.77373422E-001
  0.10028977E+003 -0.37022618E+002  0.47946637E+000
  0.85215651E+002 -0.30989146E+002  0.76444462E+000
  0.63361835E+002 -0.20973429E+002  0.32185559E+000
  0.36058846E+002 -0.83674688E+001 -0.49555409E-001
VECTORS Vstr_CP double
 -0.17860388E+002  0.85787131E+001 -0.64918386E+000
 -0.45832157E+002  0.21494777E+002 -0.33287638E+000
 -0.67747589E+002  0.32017715E+002  0.70375650E+000
 -0.82921145E+002  0.37677418E+002  0.46064823E+000
 -0.88055138E+002  0.38748849E+002 -0.76054069E-001
 -0.83130939E+002  0.36907652E+002 -0.44139507E+000
 -0.68036566E+002  0.30938147E+002 -0.73237990E+000
 -0.46193666E+002  0.20908457E+002 -0.25156185E+000
 -0.18893414E+002  0.83356294E+001  0.13455690E+000
VECTORS Vwnd_CP double
  0.17200000E+002  0.00000000E+000  0.00000000E+000
  0.17200000E+002  0.00000000E+000  0.00000000E+000
  0.17200000E+002  0.00000000E+000  0.00000000E+000
  0.17200000E+002  0.00000000E+000  0.00000000E+000
  0.17200000E+002  0.00000000E+000  0.00000000E+000
  0.17200000E+002  0.00000000E+000  0.00000000E+000
  0.17200000E+002  0.00000000E+000  0.00000000E+000
  0.17200000E+002  0.00000000E+000  0.00000000E+000
  0.17200000E+002  0.00000000E+000  0.00000000E+000
VECTORS Tangent double
  0.77599785E+000 -0.63073554E+000  0.15661950E-003
  0.91393001E+000 -0.40587181E+000 -0.12268067E-003
  0.91596123E+000 -0.40126673E+000  0.20629610E-003
  0.91560779E+000 -0.40207256E+000  0.18313937E-003
  0.91454966E+000 -0.40447363E+000 -0.40699066E-004
  0.91512045E+000 -0.40318050E+000 -0.20569266E-003
  0.91554470E+000 -0.40221624E+000 -0.67904539E-004
  0.91478803E+000 -0.40393422E+000  0.76974569E-004
  0.91468355E+000 -0.40416865E+000  0.13063472E-002
VECTORS Normal double
  0.33240404E+000  0.40916975E+000  0.84975742E+000
  0.26076059E+000  0.58694122E+000  0.76648804E+000
  0.28445720E+000  0.64968555E+000  0.70497716E+000
  0.36079923E+000  0.82182018E+000  0.44094841E+000
  0.40447326E+000  0.91454895E+000 -0.12635490E-002
  0.36155579E+000  0.82086818E+000 -0.44210049E+000
  0.28545970E+000  0.64989654E+000 -0.70437720E+000
  0.25986456E+000  0.58836821E+000 -0.76569789E+000
  0.20805184E+000  0.46807105E+000 -0.85885035E+000
VECTORS Orth double
  0.53603629E+000  0.65935786E+000 -0.52717389E+000
  0.31102388E+000  0.70054841E+000 -0.64225857E+000
  0.28301791E+000  0.64567306E+000 -0.70922998E+000
  0.17744376E+000  0.40366972E+000 -0.89753243E+000
 -0.54829354E-003 -0.11391166E-002 -0.99999920E+000
 -0.17841514E+000 -0.40450083E+000 -0.89696550E+000
 -0.28335608E+000 -0.64486943E+000 -0.70982586E+000
 -0.30924629E+000 -0.70047127E+000 -0.64320039E+000
 -0.34650892E+000 -0.78584808E+000 -0.51222492E+000
