<?xml version="1.0"?>
<VTKFile type="PolyData" version="0.1" byte_order="LittleEndian">
  <PolyData>
    <Piece NumberOfPoints="     10" NumberOfVerts="  0" NumberOfLines="      9"
           NumberOfStrips="  0" NumberOfPolys="      0">
      <Points>
        <DataArray type="Float32" NumberOfComponents="3" format="ascii">
                       0.06950                      -0.07141                      15.12069
                       1.70791                      -1.74078                      15.12825
                       3.34707                      -3.40939                      15.13573
                       4.98682                      -5.07744                      15.14231
                       6.62716                      -6.74489                      15.14757
                       8.26441                      -8.41547                      15.15513
                       9.90501                     -10.08263                      15.15577
                      11.54569                     -11.74970                      15.15463
                      13.18628                     -13.41683                      15.15158
                      14.82665                     -15.08413                      15.14661
        </DataArray>
      </Points>
      <PointData>
        <DataArray type="Float32" Name="TranslationalVelocity" NumberOfComponents="3" format="ascii">
                       0.12431                       0.12288                       0.00097
                       3.14002                       3.08207                       0.03349
                       6.15914                       6.04727                       0.06352
                       9.18126                       9.01747                       0.08917
                      12.20570                      11.99205                       0.10863
                      15.23998                      14.96439                       0.11981
                      18.26877                      17.94423                       0.12083
                      21.29868                      20.92549                       0.11066
                      24.32928                      23.90728                       0.08775
                      27.36012                      26.88871                       0.05054
        </DataArray>
        <DataArray type="Float32" Name="RotationalVelocity" NumberOfComponents="3" format="ascii">
                      -0.01542                      -0.00443                       1.80429
                      -0.01536                      -0.00378                       1.80692
                      -0.01479                      -0.00260                       1.80936
                      -0.01375                      -0.00095                       1.81147
                      -0.01226                       0.00115                       1.81325
                      -0.00800                       0.00661                       1.81582
                      -0.00529                       0.00991                       1.81661
                      -0.00222                       0.01356                       1.81707
                       0.00130                       0.01769                       1.81720
                       0.00512                       0.02212                       1.81699
        </DataArray>
        <DataArray type="Float32" Name="TranslationalAcceleration" NumberOfComponents="3" format="ascii">
                       0.24765                       0.03267                      -0.09041
                      -0.49146                       0.82523                      -0.34559
                      -0.99294                       1.40268                      -0.62760
                      -1.48307                       1.99743                      -0.92318
                      -1.96171                       2.60975                      -1.20700
                       2.53616                      -1.59854                      -1.48963
                       2.09409                      -0.94155                      -1.46693
                       1.65644                      -0.27181                      -1.40103
                       1.23702                       0.39993                      -1.24933
                       0.82303                       1.07323                      -0.95579
        </DataArray>
        <DataArray type="Float32" Name="OrientationX" NumberOfComponents="3" format="ascii">
                      -0.00003                       0.00009                       1.00000
                       0.00010                      -0.00008                       1.00000
                       0.00026                      -0.00026                       1.00000
                       0.00043                      -0.00043                       1.00000
                       0.00063                      -0.00063                       1.00000
                       0.00013                       0.00024                       1.00000
                       0.00021                       0.00048                       1.00000
                       0.00035                       0.00063                       1.00000
                       0.00053                       0.00069                       1.00000
                       0.00002                       0.00004                       1.00000
        </DataArray>
        <DataArray type="Float32" Name="OrientationY" NumberOfComponents="3" format="ascii">
                      -0.71499                      -0.69913                       0.00004
                      -0.71439                      -0.69975                       0.00002
                      -0.71375                      -0.70040                       0.00001
                      -0.71310                      -0.70106                       0.00000
                      -0.71239                      -0.70179                       0.00001
                      -0.71087                      -0.70332                       0.00026
                      -0.71095                      -0.70324                       0.00049
                      -0.71117                      -0.70301                       0.00069
                      -0.71152                      -0.70267                       0.00086
                      -0.71105                      -0.70314                       0.00004
        </DataArray>
        <DataArray type="Float32" Name="OrientationZ" NumberOfComponents="3" format="ascii">
                       0.69913                      -0.71499                       0.00008
                       0.69975                      -0.71439                      -0.00013
                       0.70040                      -0.71375                      -0.00037
                       0.70106                      -0.71310                      -0.00061
                       0.70179                      -0.71239                      -0.00089
                       0.70332                      -0.71087                       0.00008
                       0.70324                      -0.71095                       0.00020
                       0.70302                      -0.71117                       0.00020
                       0.70267                      -0.71152                       0.00011
                       0.70314                      -0.71105                       0.00001
        </DataArray>
      </PointData>
      <Lines>
        <DataArray type="Int32" Name="connectivity" format="ascii">
      0      1
      1      2
      2      3
      3      4
      4      5
      5      6
      6      7
      7      8
      8      9
        </DataArray>
        <DataArray type="Int32" Name="offsets" format="ascii">
      2
      4
      6
      8
     10
     12
     14
     16
     18
        </DataArray>
      </Lines>
    </Piece>
  </PolyData>
</VTKFile>
