# vtk DataFile Version 2.0
Sgmt
ASCII
 
DATASET POLYDATA
POINTS 630 double
  0.35609182E-001  0.62507968E-002  0.11318187E+003
 -0.20457014E+002 -0.18520534E+001  0.10098038E+003
 -0.34896353E+002 -0.31677864E+001  0.88742181E+002
 -0.46959944E+002 -0.42753960E+001  0.76480182E+002
 -0.52997073E+002 -0.48326793E+001  0.64235260E+002
 -0.52998858E+002 -0.48348763E+001  0.51993527E+002
 -0.46960847E+002 -0.42837735E+001  0.39749988E+002
 -0.34899469E+002 -0.31712375E+001  0.27482279E+002
 -0.20467715E+002 -0.18551119E+001  0.15241063E+002
  0.16241854E-003  0.37530681E-004  0.30001114E+001
 -0.44459373E+001 -0.40077646E+000  0.11317352E+003
 -0.20863285E+002  0.25414527E+001  0.10098217E+003
 -0.35188440E+002 -0.84725754E-001  0.88746710E+002
 -0.47186097E+002 -0.18303639E+001  0.76481489E+002
 -0.53200660E+002 -0.25861090E+001  0.64235313E+002
 -0.53205406E+002 -0.25445352E+001  0.51992322E+002
 -0.47190162E+002 -0.16936159E+001  0.39746079E+002
 -0.35203149E+002  0.24089386E+000  0.27482172E+002
 -0.20870051E+002  0.26268660E+001  0.15241247E+002
 -0.40522879E+000  0.44817401E+001  0.30003179E+001
 -0.42942162E+001 -0.32202455E+000  0.11317640E+003
 -0.20644904E+002  0.29188314E+001  0.10096773E+003
 -0.35012704E+002  0.55602492E+000  0.88729337E+002
 -0.47052368E+002 -0.96697119E+000  0.76472316E+002
 -0.53083325E+002 -0.16102140E+001  0.64226646E+002
 -0.53086596E+002 -0.15675302E+001  0.51982592E+002
 -0.47054675E+002 -0.82781926E+000  0.39737049E+002
 -0.35023919E+002  0.88225870E+000  0.27481831E+002
 -0.20648728E+002  0.30049768E+001  0.15241049E+002
 -0.15258122E+000  0.44882590E+001  0.30001805E+001
 -0.41379509E+001 -0.24237253E+000  0.11317908E+003
 -0.20418024E+002  0.32946401E+001  0.10095543E+003
 -0.34823794E+002  0.11946579E+001  0.88715240E+002
 -0.46897883E+002 -0.10644928E+000  0.76464404E+002
 -0.52942628E+002 -0.63774320E+000  0.64219705E+002
 -0.52944645E+002 -0.59427512E+000  0.51975939E+002
 -0.46899116E+002  0.34812611E-001  0.39731384E+002
 -0.34831779E+002  0.15216146E+001  0.27482776E+002
 -0.20419895E+002  0.33813999E+001  0.15241368E+002
  0.10031749E+000  0.44933055E+001  0.30003633E+001
 -0.39768679E+001 -0.16206957E+000  0.11318092E+003
 -0.20182829E+002  0.36687892E+001  0.10094665E+003
 -0.34621777E+002  0.18309397E+001  0.88705037E+002
 -0.46723914E+002  0.75078223E+000  0.76458720E+002
 -0.52779781E+002  0.33080566E+000  0.64215124E+002
 -0.52780915E+002  0.37464871E+000  0.51972079E+002
 -0.46725127E+002  0.89385136E+000  0.39728572E+002
 -0.34627786E+002  0.21586803E+001  0.27484037E+002
 -0.20184011E+002  0.37560750E+001  0.15241853E+002
  0.35344276E+000  0.44969428E+001  0.30003683E+001
 -0.38106481E+001 -0.81322015E-001  0.11318172E+003
 -0.19940138E+002  0.40412226E+001  0.10094201E+003
 -0.34408380E+002  0.24647690E+001  0.88699893E+002
 -0.46531266E+002  0.16043460E+001  0.76455540E+002
 -0.52595590E+002  0.12949511E+001  0.64212895E+002
 -0.52596208E+002  0.13388384E+001  0.51970720E+002
 -0.46532720E+002  0.17487123E+001  0.39728082E+002
 -0.34412618E+002  0.27932079E+001  0.27484348E+002
 -0.19941135E+002  0.41288783E+001  0.15242265E+002
  0.60659506E+000  0.44991174E+001  0.30003950E+001
 -0.36402386E+001 -0.33411658E-003  0.11318188E+003
 -0.19691374E+002  0.44120817E+001  0.10094063E+003
 -0.34184642E+002  0.30966112E+001  0.88698015E+002
 -0.46322166E+002  0.24550795E+001  0.76454453E+002
 -0.52391692E+002  0.22554055E+001  0.64212268E+002
 -0.52391693E+002  0.22992652E+001  0.51970628E+002
 -0.46322188E+002  0.25999025E+001  0.39728428E+002
 -0.34184622E+002  0.34253383E+001  0.27484884E+002
 -0.19691364E+002  0.44998503E+001  0.15242457E+002
  0.85967925E+000  0.44998337E+001  0.30004303E+001
  0.35609182E-001  0.62507968E-002  0.11318187E+003
  0.86371791E+001  0.18658459E+002  0.10091112E+003
  0.14734985E+002  0.31845852E+002  0.88712688E+002
  0.19843010E+002  0.42872596E+002  0.76477353E+002
  0.22381037E+002  0.48356902E+002  0.64216746E+002
  0.22376279E+002  0.48347749E+002  0.51966672E+002
  0.19834647E+002  0.42854699E+002  0.39711402E+002
  0.14730422E+002  0.31831186E+002  0.27469135E+002
  0.86319681E+001  0.18651684E+002  0.15255197E+002
  0.16241854E-003  0.37530681E-004  0.30001114E+001
  0.26286751E+001 -0.36715211E+001  0.11318363E+003
  0.12633983E+002  0.16789365E+002  0.10091058E+003
  0.17547206E+002  0.30548928E+002  0.88713498E+002
  0.22073714E+002  0.41846298E+002  0.76477968E+002
  0.24428090E+002  0.47409221E+002  0.64216872E+002
  0.24462369E+002  0.47379993E+002  0.51966318E+002
  0.22196502E+002  0.41766968E+002  0.39710710E+002
  0.17840020E+002  0.30394084E+002  0.27469384E+002
  0.12713924E+002  0.16757578E+002  0.15255474E+002
  0.40841172E+001 -0.18897359E+001  0.30084701E+001
  0.27206340E+001 -0.37198429E+001  0.11318273E+003
  0.13106725E+002  0.16562166E+002  0.10092034E+003
  0.18262014E+002  0.30212958E+002  0.88709504E+002
  0.22988339E+002  0.41423357E+002  0.76470032E+002
  0.25448927E+002  0.46956036E+002  0.64216218E+002
  0.25485144E+002  0.46931134E+002  0.51967580E+002
  0.23113807E+002  0.41350584E+002  0.39716568E+002
  0.18553743E+002  0.30059242E+002  0.27475115E+002
  0.13186591E+002  0.16526785E+002  0.15253053E+002
  0.42211956E+001 -0.19630024E+001  0.30060443E+001
  0.28143724E+001 -0.37667116E+001  0.11318243E+003
  0.13576075E+002  0.16328887E+002  0.10092934E+003
  0.18970884E+002  0.29869170E+002  0.88705550E+002
  0.23895639E+002  0.40989993E+002  0.76463614E+002
  0.26460498E+002  0.46486997E+002  0.64215291E+002
  0.26498331E+002  0.46465116E+002  0.51968598E+002
  0.24022948E+002  0.40920962E+002  0.39721190E+002
  0.19261555E+002  0.29715513E+002  0.27479350E+002
  0.13655228E+002  0.16290646E+002  0.15249708E+002
  0.43570555E+001 -0.20357365E+001  0.30037191E+001
  0.29101935E+001 -0.38120283E+001  0.11318239E+003
  0.14041262E+002  0.16089183E+002  0.10093603E+003
  0.19673665E+002  0.29518295E+002  0.88701642E+002
  0.24795728E+002  0.40546213E+002  0.76458888E+002
  0.27462071E+002  0.46001101E+002  0.64214128E+002
  0.27500611E+002  0.45980315E+002  0.51969460E+002
  0.24923440E+002  0.40477816E+002  0.39724730E+002
  0.19963031E+002  0.29362833E+002  0.27482525E+002
  0.14119286E+002  0.16048644E+002  0.15246076E+002
  0.44915977E+001 -0.21078783E+001  0.30018109E+001
  0.30088614E+001 -0.38554612E+001  0.11318239E+003
  0.14501492E+002  0.15843175E+002  0.10093948E+003
  0.20371179E+002  0.29162091E+002  0.88698883E+002
  0.25689527E+002  0.40093622E+002  0.76456143E+002
  0.28454517E+002  0.45500795E+002  0.64213053E+002
  0.28492920E+002  0.45479631E+002  0.51970055E+002
  0.25816317E+002  0.40023575E+002  0.39726889E+002
  0.20658561E+002  0.29002688E+002  0.27484388E+002
  0.14578347E+002  0.15800746E+002  0.15243455E+002
  0.46248606E+001 -0.21793052E+001  0.30006949E+001
  0.31099357E+001 -0.38968964E+001  0.11318239E+003
  0.14956740E+002  0.15591769E+002  0.10094046E+003
  0.21064248E+002  0.28801078E+002  0.88698115E+002
  0.26578104E+002  0.39634085E+002  0.76455416E+002
  0.29440072E+002  0.44990577E+002  0.64212678E+002
  0.29478047E+002  0.44968630E+002  0.51970240E+002
  0.26703530E+002  0.39561692E+002  0.39727472E+002
  0.21348939E+002  0.28636679E+002  0.27484804E+002
  0.15032658E+002  0.15547797E+002  0.15242563E+002
  0.47569287E+001 -0.22499107E+001  0.30003871E+001
  0.35609182E-001  0.62507968E-002  0.11318187E+003
  0.11843072E+002 -0.16804208E+002  0.10091614E+003
  0.20200077E+002 -0.28683791E+002  0.88710200E+002
  0.27204587E+002 -0.38615796E+002  0.76476290E+002
  0.30691297E+002 -0.43557920E+002  0.64218959E+002
  0.30688601E+002 -0.43550890E+002  0.51968985E+002
  0.27199170E+002 -0.38598459E+002  0.39717539E+002
  0.20197942E+002 -0.28666013E+002  0.27477585E+002
  0.11836909E+002 -0.16800699E+002  0.15255494E+002
  0.16241854E-003  0.37530681E-004  0.30001114E+001
 -0.18537963E+001 -0.40778827E+001  0.11318086E+003
  0.82407287E+001 -0.19351964E+002  0.10091995E+003
  0.17665538E+002 -0.30463316E+002  0.88711965E+002
  0.25195079E+002 -0.40026897E+002  0.76476091E+002
  0.28848428E+002 -0.44858827E+002  0.64219002E+002
  0.28810748E+002 -0.44878291E+002  0.51968315E+002
  0.25071633E+002 -0.40093485E+002  0.39716690E+002
  0.17396616E+002 -0.30637670E+002  0.27477796E+002
  0.81608474E+001 -0.19396190E+002  0.15255523E+002
 -0.36784011E+001 -0.25918916E+001  0.29915461E+001
 -0.17695184E+001 -0.40453652E+001  0.11318114E+003
  0.80563599E+001 -0.19494063E+002  0.10092502E+003
  0.17281787E+002 -0.30767974E+002  0.88707959E+002
  0.24632975E+002 -0.40462316E+002  0.76468723E+002
  0.28201316E+002 -0.45367077E+002  0.64217415E+002
  0.28164015E+002 -0.45389056E+002  0.51969032E+002
  0.24509968E+002 -0.40534044E+002  0.39721001E+002
  0.17009445E+002 -0.30942877E+002  0.27480685E+002
  0.79801759E+001 -0.19538840E+002  0.15252743E+002
 -0.35531405E+001 -0.25249563E+001  0.29935980E+001
 -0.16811033E+001 -0.40109964E+001  0.11318160E+003
  0.78726544E+001 -0.19629758E+002  0.10093253E+003
  0.16893176E+002 -0.31063540E+002  0.88704425E+002
  0.24064482E+002 -0.40886363E+002  0.76462990E+002
  0.27545559E+002 -0.45859677E+002  0.64215950E+002
  0.27508572E+002 -0.45882981E+002  0.51969343E+002
  0.23941698E+002 -0.40961089E+002  0.39723962E+002
  0.16617533E+002 -0.31237793E+002  0.27482514E+002
  0.77974920E+001 -0.19675283E+002  0.15249358E+002
 -0.34262477E+001 -0.24573225E+001  0.29957828E+001
 -0.15882607E+001 -0.39748992E+001  0.11318193E+003
  0.76877987E+001 -0.19760117E+002  0.10093703E+003
  0.16499327E+002 -0.31349477E+002  0.88701067E+002
  0.23489498E+002 -0.41298083E+002  0.76458710E+002
  0.26881046E+002 -0.46335508E+002  0.64214446E+002
  0.26843996E+002 -0.46358966E+002  0.51969618E+002
  0.23366394E+002 -0.41373643E+002  0.39725968E+002
  0.16220598E+002 -0.31521805E+002  0.27483906E+002
  0.76129734E+001 -0.19805620E+002  0.15245886E+002
 -0.32980521E+001 -0.23888705E+001  0.29976587E+001
[...]
CELL_DATA 1107
SCALARS Gamma double
LOOKUP_TABLE default
 -0.17915563E+001
  0.17915563E+001
 -0.48619196E+002
  0.46827639E+002
 -0.42402214E+002
 -0.62169816E+001
 -0.41280658E+002
 -0.11215561E+001
 -0.42145739E+002
  0.86508056E+000
 -0.40220134E+002
 -0.19256050E+001
 -0.41313394E+002
  0.10932602E+001
 -0.48317845E+002
  0.70044515E+001
 -0.24714688E+002
 -0.23603158E+002
 -0.24714688E+002
  0.00000000E+000
  0.17915563E+001
  0.00000000E+000
  0.46827639E+002
  0.00000000E+000
 -0.62169816E+001
  0.00000000E+000
 -0.11215561E+001
  0.00000000E+000
  0.86508056E+000
  0.00000000E+000
 -0.19256050E+001
  0.00000000E+000
  0.10932602E+001
  0.00000000E+000
  0.70044515E+001
  0.00000000E+000
 -0.23603158E+002
 -0.24714688E+002
  0.97299534E+000
  0.81856091E+000
  0.27077488E+002
  0.20723147E+002
  0.23657597E+002
 -0.27970910E+001
  0.22649332E+002
 -0.11329133E+000
  0.22929610E+002
  0.58480337E+000
  0.21802107E+002
 -0.79810264E+000
  0.22590109E+002
  0.30525857E+000
  0.26662817E+002
  0.29317436E+001
  0.13579584E+002
 -0.10519925E+002
 -0.11135103E+002
  0.64872544E+000
  0.16983547E+000
  0.17225887E+002
  0.41459856E+001
  0.14985761E+002
 -0.55696483E+000
  0.14823631E+002
  0.48838483E-001
  0.15253043E+002
  0.15539132E+000
  0.14596251E+002
 -0.14131106E+000
  0.14877618E+002
  0.23892066E-001
  0.17257262E+002
  0.55209979E+000
  0.88586096E+001
 -0.21212729E+001
 -0.22764939E+001
  0.16779964E+000
  0.20358333E-002
  0.42656912E+001
  0.48093971E-001
  0.37150864E+001
 -0.63599538E-002
  0.37625785E+001
  0.13463489E-002
  0.39157448E+001
  0.22250323E-002
  0.37758405E+001
 -0.14067937E-002
  0.37998844E+001
 -0.15175484E-003
  0.43459621E+001
  0.60219938E-002
  0.22494345E+001
 -0.24745317E-001
 -0.27059359E-001
  0.20358333E-002
  0.00000000E+000
  0.00000000E+000
  0.50129804E-001
 -0.00000000E+000
  0.00000000E+000
  0.43769850E-001
 -0.00000000E+000
  0.00000000E+000
  0.45116199E-001
 -0.00000000E+000
  0.00000000E+000
  0.47341231E-001
 -0.00000000E+000
  0.00000000E+000
  0.45934438E-001
 -0.00000000E+000
  0.00000000E+000
  0.45782683E-001
 -0.00000000E+000
  0.00000000E+000
  0.51804677E-001
 -0.00000000E+000
  0.00000000E+000
  0.27059359E-001
 -0.00000000E+000
  0.00000000E+000
 -0.00000000E+000
  0.35761694E+002
 -0.35761694E+002
  0.19421458E+002
  0.16340236E+002
  0.11297451E+002
  0.81240071E+001
  0.15331624E+002
 -0.40341727E+001
  0.19929530E+002
 -0.45979064E+001
  0.17800053E+002
  0.21294770E+001
  0.14857698E+002
  0.29423555E+001
  0.20276385E+002
 -0.54186876E+001
  0.21328000E+002
 -0.10516144E+001
  0.21328000E+002
  0.00000000E+000
 -0.35761694E+002
  0.00000000E+000
  0.16340236E+002
  0.00000000E+000
  0.81240071E+001
  0.00000000E+000
 -0.40341727E+001
  0.00000000E+000
 -0.45979064E+001
  0.00000000E+000
  0.21294770E+001
  0.00000000E+000
  0.29423555E+001
  0.00000000E+000
 -0.54186876E+001
  0.00000000E+000
 -0.10516144E+001
  0.21328000E+002
 -0.19801747E+002
 -0.15959946E+002
 -0.10431548E+002
  0.69700364E+001
 -0.56400549E+001
  0.33325139E+001
 -0.81041948E+001
 -0.15700328E+001
 -0.11011162E+002
 -0.16909396E+001
 -0.96864267E+001
  0.80474206E+000
 -0.77734533E+001
  0.10293821E+001
 -0.10713530E+002
 -0.24786105E+001
 -0.11444404E+002
 -0.32074043E+000
  0.98835952E+001
 -0.12734296E+002
 -0.32256505E+001
 -0.70919756E+001
  0.13277161E+001
 -0.43707978E+001
  0.61133605E+000
 -0.56838027E+001
 -0.25702784E+000
 -0.71110926E+001
 -0.26364967E+000
 -0.64318326E+001
  0.12548201E+000
 -0.55503317E+001
  0.14788120E+000
 -0.75239556E+001
 -0.50498659E+000
 -0.78048641E+001
 -0.39831881E-001
  0.20787311E+001
 -0.31878192E+001
 -0.37831218E-001
 -0.18745597E+001
  0.14456477E-001
 -0.12697514E+001
  0.65277625E-002
 -0.15248765E+001
 -0.19027177E-002
 -0.17864326E+001
 -0.20935815E-002
 -0.16619089E+001
  0.95830135E-003
 -0.15148379E+001
  0.81028700E-003
 -0.20138719E+001
 -0.59526030E-002
 -0.20534908E+001
 -0.21301071E-003
  0.25240302E-001
 -0.37831218E-001
 -0.00000000E+000
 -0.00000000E+000
 -0.23374740E-001
 -0.00000000E+000
 -0.00000000E+000
 -0.16846978E-001
 -0.00000000E+000
 -0.00000000E+000
 -0.18749696E-001
 -0.00000000E+000
 -0.00000000E+000
 -0.20843277E-001
 -0.00000000E+000
 -0.00000000E+000
 -0.19884976E-001
 -0.00000000E+000
 -0.00000000E+000
 -0.19074689E-001
 -0.00000000E+000
 -0.00000000E+000
 -0.25027292E-001
 -0.00000000E+000
 -0.00000000E+000
 -0.25240302E-001
 -0.00000000E+000
 -0.00000000E+000
  0.00000000E+000
  0.12940546E+002
 -0.12940546E+002
  0.26383846E+002
 -0.13443300E+002
  0.18957153E+002
  0.74266936E+001
  0.22682258E+002
 -0.37251056E+001
  0.26751777E+002
 -0.40695191E+001
  0.25299876E+002
  0.14519017E+001
  0.23305827E+002
  0.19940483E+001
  0.28582989E+002
 -0.52771613E+001
  0.78166061E+001
  0.20766383E+002
  0.78166061E+001
  0.00000000E+000
 -0.12940546E+002
  0.00000000E+000
 -0.13443300E+002
  0.00000000E+000
  0.74266936E+001
  0.00000000E+000
 -0.37251056E+001
  0.00000000E+000
 -0.40695191E+001
  0.00000000E+000
  0.14519017E+001
  0.00000000E+000
  0.19940483E+001
  0.00000000E+000
 -0.52771613E+001
  0.00000000E+000
  0.20766383E+002
  0.78166061E+001
 -0.73888130E+001
 -0.55517334E+001
 -0.14859403E+002
 -0.59727103E+001
 -0.10531808E+002
  0.30990986E+001
 -0.12815353E+002
 -0.14415602E+001
 -0.15308397E+002
 -0.15764755E+001
 -0.14442329E+002
  0.58583389E+000
 -0.13152417E+002
  0.70413672E+000
 -0.16048524E+002
 -0.23810543E+001
 -0.44178333E+001
  0.91356917E+001
  0.33987728E+001
 -0.44720828E+001
 -0.10796506E+001
 -0.92379513E+001
 -0.12068418E+001
 -0.67130300E+001
  0.57417728E+000
 -0.79160876E+001
 -0.23850265E+000
 -0.92326540E+001
 -0.25990912E+000
 -0.87457936E+001
  0.98973503E-001
 -0.81446344E+001
  0.10297754E+000
 -0.10049450E+002
 -0.47623825E+000
 -0.27284752E+001
  0.18147164E+001
  0.67029763E+000
 -0.10674822E+001
 -0.12168383E-001
 -0.22601309E+001
 -0.14193089E-001
 -0.16920466E+001
  0.60929708E-002
 -0.19286953E+001
 -0.18539712E-002
 -0.21864031E+001
 -0.22012529E-002
 -0.20882739E+001
  0.84422521E-003
 -0.19858451E+001
  0.54879671E-003
 -0.24566168E+001
 -0.54665826E-002
 -0.66265053E+000
  0.20750192E-001
  0.76470951E-002
 -0.12168383E-001
 -0.00000000E+000
 -0.00000000E+000
 -0.26361473E-001
 -0.00000000E+000
 -0.00000000E+000
 -0.20268502E-001
 -0.00000000E+000
 -0.00000000E+000
 -0.22122473E-001
 -0.00000000E+000
 -0.00000000E+000
 -0.24323726E-001
 -0.00000000E+000
 -0.00000000E+000
 -0.23479501E-001
 -0.00000000E+000
 -0.00000000E+000
 -0.22930704E-001
 -0.00000000E+000
 -0.00000000E+000
 -0.28397287E-001
 -0.00000000E+000
 -0.00000000E+000
 -0.76470951E-002
 -0.00000000E+000
 -0.00000000E+000
  0.00000000E+000
 -0.20585645E+000
  0.20585645E+000
  0.76071688E+000
 -0.96657333E+000
  0.96609631E-001
  0.66410724E+000
  0.43457748E-001
  0.53151884E-001
 -0.16720931E+000
  0.21066706E+000
 -0.27696253E+000
  0.10975322E+000
 -0.36866301E+000
  0.91700472E-001
 -0.44381586E+000
  0.75152854E-001
 -0.71276020E+000
  0.26894434E+000
 -0.71276020E+000
  0.00000000E+000
  0.20585645E+000
  0.00000000E+000
 -0.96657333E+000
  0.00000000E+000
  0.66410724E+000
  0.00000000E+000
  0.53151884E-001
  0.00000000E+000
  0.21066706E+000
  0.00000000E+000
  0.10975322E+000
  0.00000000E+000
  0.91700472E-001
  0.00000000E+000
  0.75152854E-001
  0.00000000E+000
  0.26894434E+000
 -0.71276020E+000
  0.22058251E+000
 -0.14726060E-001
 -0.50525433E+000
 -0.24073648E+000
 -0.71576945E-001
  0.23042985E+000
 -0.54497242E-001
  0.36072180E-001
  0.77342782E-001
  0.78827037E-001
  0.14351446E+000
  0.43581542E-001
  0.20182208E+000
  0.33392851E-001
  0.24991818E+000
  0.27056754E-001
  0.40676106E+000
  0.11210146E+000
 -0.30599914E+000
  0.11591051E-002
 -0.15885165E-001
 -0.21969885E+000
 -0.19878529E-001
 -0.24307034E-001
  0.35038042E-001
  0.29444707E-002
  0.88206752E-002
  0.68706243E-001
  0.13065265E-001
  0.10477999E+000
  0.75077901E-002
  0.13285900E+000
  0.53138460E-002
  0.15551724E+000
  0.43985183E-002
  0.24588546E+000
  0.21733232E-001
 -0.60113674E-001
 -0.15695824E-001
 -0.18934076E-003
 -0.35522716E-001
 -0.51637527E-004
 -0.78145232E-003
  0.29677866E-003
  0.79265796E-002
  0.11264327E-003
  0.20867785E-001
  0.12405976E-003
  0.28305413E-001
  0.70162431E-004
  0.33575191E-001
  0.44067848E-004
  0.37937774E-001
  0.35934829E-004
  0.59422186E-001
  0.24882016E-003
 -0.69148868E-003
 -0.18934076E-003
 -0.00000000E+000
 -0.00000000E+000
 -0.24097829E-003
 -0.00000000E+000
 -0.00000000E+000
  0.55800373E-004
  0.00000000E+000
  0.00000000E+000
  0.16844364E-003
 -0.00000000E+000
  0.00000000E+000
  0.29250341E-003
 -0.00000000E+000
  0.00000000E+000
  0.36266584E-003
 -0.00000000E+000
  0.00000000E+000
  0.40673368E-003
 -0.00000000E+000
  0.00000000E+000
  0.44266851E-003
 -0.00000000E+000
  0.00000000E+000
  0.69148868E-003
 -0.00000000E+000
  0.00000000E+000
 -0.00000000E+000
 -0.27014992E+000
  0.27014992E+000
 -0.24526399E+000
 -0.24885930E-001
 -0.63080646E+000
  0.38554246E+000
 -0.85971255E+000
  0.22890609E+000
 -0.10301779E+001
  0.17046531E+000
 -0.10398551E+001
  0.96772320E-002
 -0.98969262E+000
 -0.50162472E-001
 -0.82402396E+000
 -0.16566866E+000
 -0.65709438E+000
 -0.16692958E+000
 -0.65709438E+000
  0.00000000E+000
  0.27014992E+000
  0.00000000E+000
 -0.24885930E-001
  0.00000000E+000
  0.38554246E+000
  0.00000000E+000
  0.22890609E+000
  0.00000000E+000
  0.17046531E+000
  0.00000000E+000
  0.96772320E-002
  0.00000000E+000
 -0.50162472E-001
  0.00000000E+000
 -0.16566866E+000
  0.00000000E+000
 -0.16692958E+000
 -0.65709438E+000
  0.16639608E+000
  0.10375385E+000
  0.12917388E+000
  0.12336271E-001
  0.35113219E+000
  0.16358415E+000
  0.47595892E+000
  0.10407937E+000
  0.56563783E+000
  0.80786391E-001
  0.55998429E+000
  0.15330773E-001
  0.52217745E+000
 -0.12355634E-001
  0.42171285E+000
 -0.65204050E-001
  0.31037291E+000
 -0.55589640E-001
 -0.34672148E+000
  0.89847100E-001
  0.13906748E-001
  0.97873087E-001
  0.43102834E-002
  0.23445350E+000
  0.27003731E-001
  0.31918700E+000
  0.19345879E-001
  0.38308300E+000
  0.16890385E-001
  0.39173119E+000
  0.66825889E-002
  0.37732871E+000
  0.20468383E-002
  0.32045489E+000
 -0.83302305E-002
  0.26895667E+000
 -0.40914188E-002
 -0.77764804E-001
  0.13843415E-001
  0.63332842E-004
  0.18160081E-001
 -0.63821958E-005
  0.44992030E-001
  0.17178095E-003
  0.64198178E-001
  0.13973104E-003
  0.80934843E-001
  0.15372039E-003
  0.87520845E-001
  0.96587215E-004
  0.89482047E-001
  0.85635798E-004
  0.81146095E-001
  0.57217056E-005
  0.76990012E-001
  0.64664345E-004
 -0.77479209E-003
  0.63332842E-004
 -0.00000000E+000
 -0.00000000E+000
  0.56950646E-004
 -0.00000000E+000
 -0.00000000E+000
  0.22873159E-003
 -0.00000000E+000
 -0.00000000E+000
  0.36846263E-003
 -0.00000000E+000
 -0.00000000E+000
  0.52218302E-003
 -0.00000000E+000
 -0.00000000E+000
  0.61877024E-003
 -0.00000000E+000
 -0.00000000E+000
  0.70440604E-003
  0.00000000E+000
  0.00000000E+000
  0.71012774E-003
 -0.00000000E+000
  0.00000000E+000
  0.77479209E-003
 -0.00000000E+000
  0.00000000E+000
 -0.00000000E+000
  0.37573070E+001
 -0.37573070E+001
  0.51314836E+001
 -0.13741766E+001
  0.23531543E+001
  0.27783293E+001
 -0.91224408E+000
  0.32653984E+001
 -0.88078608E+000
 -0.31458001E-001
 -0.11339089E+001
  0.25312284E+000
 -0.11261271E+001
 -0.77817690E-002
 -0.95386238E+000
 -0.17226477E+000
 -0.66770539E+000
 -0.28615700E+000
 -0.66770539E+000
  0.00000000E+000
 -0.37573070E+001
  0.00000000E+000
 -0.13741766E+001
  0.00000000E+000
  0.27783293E+001
  0.00000000E+000
  0.32653984E+001
  0.00000000E+000
 -0.31458001E-001
  0.00000000E+000
  0.25312284E+000
  0.00000000E+000
 -0.77817690E-002
  0.00000000E+000
 -0.17226477E+000
  0.00000000E+000
 -0.28615700E+000
 -0.66770539E+000
 -0.25390623E+001
 -0.12182447E+001
 -0.29495365E+001
 -0.96370237E+000
 -0.12358414E+001
  0.10646342E+001
  0.50070350E+000
  0.15288535E+001
  0.48320289E+000
 -0.13957393E-001
  0.61753584E+000
  0.11878989E+000
  0.60389739E+000
  0.58566755E-002
  0.50211255E+000
 -0.70479926E-001
  0.32377232E+000
 -0.10781676E+000
 -0.34393307E+000
 -0.10586385E+001
 -0.15960625E+000
 -0.17904075E+001
 -0.23193333E+000
 -0.87837968E+000
  0.15260639E+000
  0.34081773E+000
  0.30965604E+000
  0.32756731E+000
 -0.70696891E-003
  0.42125617E+000
  0.25101024E-001
  0.42179459E+000
  0.53182568E-002
  0.36141177E+000
 -0.10097102E-001
  0.26858358E+000
 -0.14988574E-001
 -0.75349489E-001
 -0.15857867E+000
 -0.10275771E-002
 -0.38833566E+000
 -0.21763449E-002
 -0.23639612E+000
  0.66684911E-003
  0.70133890E-001
  0.31260352E-002
  0.69548593E-001
 -0.12167225E-003
  0.94369440E-001
  0.28017772E-003
  0.99590135E-001
  0.97561563E-004
  0.89527236E-001
 -0.34201940E-004
  0.74622044E-001
 -0.83382695E-004
 -0.72744468E-003
 -0.10275771E-002
 -0.00000000E+000
 -0.00000000E+000
 -0.32039221E-002
 -0.00000000E+000
 -0.00000000E+000
 -0.25370730E-002
 -0.00000000E+000
 -0.00000000E+000
  0.58896227E-003
  0.00000000E+000
  0.00000000E+000
  0.46729003E-003
 -0.00000000E+000
  0.00000000E+000
  0.74746775E-003
 -0.00000000E+000
  0.00000000E+000
  0.84502932E-003
 -0.00000000E+000
  0.00000000E+000
  0.81082738E-003
 -0.00000000E+000
  0.00000000E+000
  0.72744468E-003
 -0.00000000E+000
  0.00000000E+000
 -0.00000000E+000
 -0.65786140E+000
  0.65786140E+000
 -0.90106240E+000
  0.24320100E+000
 -0.15942990E+001
  0.69323664E+000
 -0.21937578E+001
  0.59945874E+000
 -0.27165371E+001
  0.52277937E+000
 -0.34792342E+001
  0.76269704E+000
 -0.40710927E+001
  0.59185849E+000
 -0.42734896E+001
  0.20239694E+000
 -0.50059323E+001
  0.73244268E+000
 -0.50059323E+001
  0.00000000E+000
  0.65786140E+000
  0.00000000E+000
  0.24320100E+000
  0.00000000E+000
  0.69323664E+000
  0.00000000E+000
  0.59945874E+000
  0.00000000E+000
  0.52277937E+000
  0.00000000E+000
  0.76269704E+000
  0.00000000E+000
  0.59185849E+000
  0.00000000E+000
  0.20239694E+000
  0.00000000E+000
  0.73244268E+000
 -0.50059323E+001
  0.17084056E+000
  0.48702084E+000
  0.56623376E+000
 -0.15219220E+000
  0.96953392E+000
  0.28993648E+000
  0.13699372E+001
  0.19905543E+000
  0.16978081E+001
  0.19490846E+000
  0.22025791E+001
  0.25792610E+000
  0.25840360E+001
  0.21040160E+000
  0.27206181E+001
  0.65814830E-001
  0.32163063E+001
  0.23675448E+000
 -0.17896260E+001
  0.39524310E+000
  0.91777741E-001
  0.28427754E+000
 -0.41226645E-001
  0.52408983E+000
  0.50124186E-001
  0.69652740E+000
  0.26617857E-001
  0.86250648E+000
  0.28929383E-001
  0.10856378E+001
  0.34794740E-001
  0.12661759E+001
  0.29863566E-001
  0.13238886E+001
  0.81020706E-002
  0.15341435E+001
  0.26499582E-001
 -0.25548248E+000
  0.90766224E-001
  0.10115168E-002
  0.50283900E-001
 -0.74432121E-003
  0.99817298E-001
  0.59078817E-003
  0.12629913E+000
  0.13602636E-003
  0.15504503E+000
  0.18348249E-003
  0.18965818E+000
  0.18158900E-003
  0.21936837E+000
  0.15338020E-003
  0.22746245E+000
  0.79856616E-005
  0.25397006E+000
 -0.80285949E-005
 -0.15124189E-002
  0.10115168E-002
  0.00000000E+000
  0.00000000E+000
  0.26719562E-003
 -0.00000000E+000
  0.00000000E+000
  0.85798379E-003
 -0.00000000E+000
  0.00000000E+000
  0.99401015E-003
 -0.00000000E+000
  0.00000000E+000
  0.11774926E-002
 -0.00000000E+000
  0.00000000E+000
  0.13590817E-002
 -0.00000000E+000
  0.00000000E+000
  0.15124619E-002
 -0.00000000E+000
  0.00000000E+000
  0.15204475E-002
 -0.00000000E+000
  0.00000000E+000
  0.15124189E-002
 -0.00000000E+000
  0.00000000E+000
 -0.00000000E+000
 -0.76447652E+000
  0.76447652E+000
 -0.13203019E+000
 -0.63244633E+000
  0.34065540E+000
 -0.47268559E+000
  0.82107390E+000
 -0.48041850E+000
  0.13176571E+001
 -0.49658323E+000
  0.17637563E+001
 -0.44609917E+000
  0.21600384E+001
 -0.39628213E+000
  0.22829013E+001
 -0.12286283E+000
  0.28079131E+001
 -0.52501189E+000
  0.28079131E+001
  0.00000000E+000
  0.76447652E+000
  0.00000000E+000
 -0.63244633E+000
  0.00000000E+000
 -0.47268559E+000
  0.00000000E+000
 -0.48041850E+000
  0.00000000E+000
 -0.49658323E+000
  0.00000000E+000
 -0.44609917E+000
  0.00000000E+000
 -0.39628213E+000
  0.00000000E+000
 -0.12286283E+000
  0.00000000E+000
 -0.52501189E+000
  0.28079131E+001
  0.48283926E+000
  0.28163725E+000
 -0.21528335E-001
 -0.12807873E+000
 -0.31681317E+000
 -0.17740075E+000
 -0.62561443E+000
 -0.17161725E+000
 -0.92797431E+000
 -0.19422335E+000
 -0.11940622E+001
 -0.18001129E+000
 -0.14199762E+001
 -0.17036812E+000
 -0.14675308E+001
 -0.75308235E-001
 -0.17727445E+001
 -0.21979814E+000
  0.10351686E+001
  0.22309901E+000
  0.58538243E-001
  0.10441774E+000
 -0.93974613E-002
 -0.52605943E-001
 -0.20377061E-001
 -0.20052039E+000
 -0.23702803E-001
 -0.36249359E+000
 -0.32250146E-001
 -0.50971649E+000
 -0.32788387E-001
 -0.64595517E+000
 -0.34129441E-001
 -0.70040404E+000
 -0.20859365E-001
 -0.87786150E+000
 -0.42340690E-001
  0.15730711E+000
  0.57766318E-001
  0.77192537E-003
  0.48388134E-001
 -0.19277702E-004
  0.28034192E-001
 -0.23118700E-004
  0.44529298E-002
 -0.12154133E-003
 -0.27553822E-001
 -0.24339420E-003
 -0.60056554E-001
 -0.28565522E-003
 -0.93844979E-001
 -0.34101608E-003
 -0.11442138E+000
 -0.28296809E-003
 -0.15634496E+000
 -0.41710465E-003
  0.96215060E-003
  0.77192537E-003
  0.00000000E+000
  0.00000000E+000
  0.75264767E-003
 -0.00000000E+000
  0.00000000E+000
  0.72952897E-003
 -0.00000000E+000
  0.00000000E+000
  0.60798763E-003
 -0.00000000E+000
  0.00000000E+000
  0.36459343E-003
 -0.00000000E+000
  0.00000000E+000
  0.78938216E-004
 -0.00000000E+000
  0.00000000E+000
 -0.26207786E-003
 -0.00000000E+000
  0.00000000E+000
 -0.54504595E-003
 -0.00000000E+000
  0.00000000E+000
 -0.96215060E-003
 -0.00000000E+000
  0.00000000E+000
 -0.00000000E+000
  0.27682954E+001
 -0.27682954E+001
  0.43758663E+000
  0.23307088E+001
 -0.19490791E+001
  0.23866657E+001
  0.11173794E+001
 -0.30664585E+001
  0.11226839E+001
 -0.53045317E-002
  0.16607526E+001
 -0.53806869E+000
  0.19849961E+001
 -0.32424352E+000
  0.20799534E+001
 -0.94957290E-001
  0.23671718E+001
 -0.28721842E+000
  0.23671718E+001
  0.00000000E+000
 -0.27682954E+001
  0.00000000E+000
  0.23307088E+001
  0.00000000E+000
  0.23866657E+001
  0.00000000E+000
 -0.30664585E+001
  0.00000000E+000
 -0.53045317E-002
  0.00000000E+000
 -0.53806869E+000
  0.00000000E+000
 -0.32424352E+000
  0.00000000E+000
 -0.94957290E-001
  0.00000000E+000
 -0.28721842E+000
  0.23671718E+001
 -0.16435168E+001
 -0.11247786E+001
  0.19705035E+000
  0.49014161E+000
  0.13300595E+001
  0.12536566E+001
 -0.78777401E+000
 -0.94862499E+000
 -0.77857996E+000
 -0.14498583E-001
 -0.11215942E+001
 -0.19505448E+000
 -0.13093512E+001
 -0.13648650E+000
 -0.13513964E+001
 -0.52912115E-001
 -0.15194936E+001
 -0.11912122E+000
  0.84767827E+000
 -0.90050424E+000
 -0.22427435E+000
 -0.38761761E+000
 -0.22745021E-001
  0.68286718E+000
  0.18317181E+000
 -0.31258589E+000
  0.46828072E-001
 -0.30611823E+000
 -0.20966235E-001
 -0.47585105E+000
 -0.25321661E-001
 -0.58572730E+000
 -0.26610256E-001
 -0.62491982E+000
 -0.13719593E-001
 -0.72128149E+000
 -0.22759551E-001
  0.12639678E+000
 -0.22082331E+000
 -0.34510427E-002
 -0.24244710E+000
 -0.11212316E-002
 -0.61478931E-001
  0.22036456E-002
 -0.17323617E-001
  0.26727576E-002
 -0.37931311E-001
 -0.35854081E-003
 -0.63160081E-001
 -0.92890887E-004
 -0.89513516E-001
 -0.25682024E-003
 -0.10306062E+000
 -0.17248752E-003
 -0.12561490E+000
 -0.20527117E-003
  0.78188161E-003
 -0.34510427E-002
 -0.00000000E+000
 -0.00000000E+000
 -0.45722743E-002
 -0.00000000E+000
 -0.00000000E+000
 -0.23686286E-002
 -0.00000000E+000
 -0.00000000E+000
  0.30412901E-003
  0.00000000E+000
  0.00000000E+000
 -0.54411804E-004
 -0.00000000E+000
  0.00000000E+000
 -0.14730269E-003
 -0.00000000E+000
  0.00000000E+000
 -0.40412293E-003
 -0.00000000E+000
  0.00000000E+000
 -0.57661044E-003
 -0.00000000E+000
  0.00000000E+000
 -0.78188161E-003
 -0.00000000E+000
  0.00000000E+000
 -0.00000000E+000