# vtk DataFile Version 2.0
BldPointCP.BldC
ASCII
 
DATASET POLYDATA
POINTS 9 double
  0.83669379E+001 -0.79968928E+001  0.10625914E+003
  0.20169858E+002 -0.19758279E+002  0.94486209E+002
  0.29681959E+002 -0.29176854E+002  0.82379518E+002
  0.36063531E+002 -0.35428773E+002  0.70126035E+002
  0.38062693E+002 -0.37323684E+002  0.58084046E+002
  0.36010719E+002 -0.35256127E+002  0.46064907E+002
  0.29617932E+002 -0.29004156E+002  0.33790003E+002
  0.20089438E+002 -0.19698586E+002  0.21594594E+002
  0.81806679E+001 -0.80275368E+001  0.98427219E+001
  
POINT_DATA 9
SCALARS Gamma_LL double
LOOKUP_TABLE default
  0.57414600E+002
  0.10501053E+003
  0.79670528E+002
  0.90825219E+002
  0.10293404E+003
  0.10344840E+003
  0.95868519E+002
  0.10951464E+003
  0.31832455E+002
VECTORS Vind_CP double
 -0.14874269E+000 -0.24820265E+000 -0.41120101E+000
 -0.16958528E+000  0.14823354E+000 -0.29722303E+000
 -0.24892317E+000  0.21895214E+000 -0.20345543E+000
 -0.57301607E+000  0.46054112E+000 -0.18251336E+000
 -0.82790309E+000  0.65175947E+000  0.18211614E-001
 -0.67259273E+000  0.54579502E+000  0.25966408E+000
 -0.34405751E+000  0.30095579E+000  0.30238947E+000
 -0.26289212E+000  0.21670355E+000  0.33423177E+000
 -0.91030869E-001 -0.46690528E-001  0.56051150E-001
VECTORS Vtot_CP double
  0.13348702E+000 -0.15613917E+002  0.58076882E+000
 -0.20540576E+002 -0.35743934E+002  0.93183986E+000
 -0.37805572E+002 -0.51629751E+002 -0.11924072E+000
 -0.48891580E+002 -0.63251173E+002 -0.26708837E+000
 -0.51785124E+002 -0.68117384E+002  0.37241537E+000
 -0.48010240E+002 -0.65056336E+002  0.85445391E+000
 -0.36607266E+002 -0.53388751E+002  0.10321354E+001
 -0.19191227E+002 -0.36122657E+002  0.64680028E+000
  0.25422830E+001 -0.14885692E+002  0.27444368E-001
VECTORS Vstr_CP double
  0.16917770E+002  0.15365714E+002 -0.99196984E+000
  0.37570991E+002  0.35892168E+002 -0.12290629E+001
  0.54756648E+002  0.51848703E+002 -0.84214710E-001
  0.65518564E+002  0.63711714E+002  0.84575011E-001
  0.68157220E+002  0.68769144E+002 -0.35420375E+000
  0.64537648E+002  0.65602131E+002 -0.59478983E+000
  0.53463209E+002  0.53689707E+002 -0.72974594E+000
  0.36128335E+002  0.36339360E+002 -0.31256850E+000
  0.14566686E+002  0.14839002E+002  0.28606782E-001
VECTORS Vwnd_CP double
  0.17200000E+002  0.00000000E+000  0.00000000E+000
  0.17200000E+002  0.00000000E+000  0.00000000E+000
  0.17200000E+002  0.00000000E+000  0.00000000E+000
  0.17200000E+002  0.00000000E+000  0.00000000E+000
  0.17200000E+002  0.00000000E+000  0.00000000E+000
  0.17200000E+002  0.00000000E+000  0.00000000E+000
  0.17200000E+002  0.00000000E+000  0.00000000E+000
  0.17200000E+002  0.00000000E+000  0.00000000E+000
  0.17200000E+002  0.00000000E+000  0.00000000E+000
VECTORS Tangent double
 -0.48148848E+000 -0.87645232E+000 -0.42267096E-003
 -0.69646979E+000 -0.71756581E+000  0.53980745E-002
 -0.70961722E+000 -0.70457981E+000  0.32692248E-002
 -0.70801620E+000 -0.70619570E+000 -0.83304523E-003
 -0.70158327E+000 -0.71258744E+000 -0.23616753E-003
 -0.70331865E+000 -0.71087449E+000  0.56890939E-003
 -0.70429651E+000 -0.70990563E+000  0.64881064E-003
 -0.70020222E+000 -0.71394446E+000  0.39708528E-003
 -0.69971496E+000 -0.71440228E+000 -0.53249396E-002
VECTORS Normal double
  0.46762827E+000 -0.25730442E+000  0.84564664E+000
  0.45980360E+000 -0.44048505E+000  0.77107300E+000
  0.49764124E+000 -0.49790364E+000  0.71024303E+000
  0.63743198E+000 -0.63958206E+000  0.42966878E+000
  0.71255806E+000 -0.70155125E+000 -0.93192970E-002
  0.63937310E+000 -0.63292664E+000 -0.43658437E+000
  0.50314215E+000 -0.49981106E+000 -0.70500843E+000
  0.45704696E+000 -0.44867671E+000 -0.76798261E+000
  0.36941011E+000 -0.35541560E+000 -0.85861279E+000
VECTORS Orth double
  0.74127771E+000 -0.40697146E+000 -0.53374300E+000
  0.55091785E+000 -0.53951111E+000 -0.63672387E+000
  0.49879514E+000 -0.50562759E+000 -0.70394897E+000
  0.30396304E+000 -0.30368145E+000 -0.90298618E+000
 -0.64751304E-002  0.67065459E-002 -0.99995655E+000
 -0.31071677E+000  0.30669419E+000 -0.89966314E+000
 -0.50081373E+000  0.49620853E+000 -0.70919863E+000
 -0.54847509E+000  0.53756164E+000 -0.64047058E+000
 -0.61150237E+000  0.60275130E+000 -0.51259704E+000
