<?xml version="1.0"?>
<VTKFile type="PolyData" version="0.1" byte_order="LittleEndian">
  <PolyData>
    <Piece NumberOfPoints="     10" NumberOfVerts="  0" NumberOfLines="      9"
           NumberOfStrips="  0" NumberOfPolys="      0">
      <Points>
        <DataArray type="Float32" NumberOfComponents="3" format="ascii">
                       0.02215                       0.00380                     113.18210
                     -20.49142                      -1.48148                     100.96471
                     -34.94981                      -2.53209                      88.72443
                     -47.04135                      -3.41585                      76.47007
                     -53.08989                      -3.86015                      64.22604
                     -53.09083                      -3.86127                      51.98425
                     -47.04113                      -3.42170                      39.74140
                     -34.95159                      -2.53479                      27.48298
                     -20.49784                      -1.48356                      15.24140
                       0.00014                       0.00003                       3.00009
        </DataArray>
      </Points>
      <PointData>
        <DataArray type="Float32" Name="TranslationalVelocity" NumberOfComponents="3" format="ascii">
                       1.20357                       0.21525                      -0.02518
                       3.04253                     -37.08469                       1.36258
                       5.00461                     -63.66114                       1.50130
                       7.22782                     -85.91024                       0.91827
                       8.23512                     -97.15902                       0.80474
                       8.20033                     -97.24388                       0.82060
                       7.13697                     -86.07898                       0.66370
                       4.67022                     -63.79641                      -0.07511
                       2.67149                     -37.13648                      -0.02650
                       0.00270                       0.00077                       0.00222
        </DataArray>
        <DataArray type="Float32" Name="RotationalVelocity" NumberOfComponents="3" format="ascii">
                      -0.01955                       0.06598                       1.80391
                      -0.02021                       0.06071                       1.81340
                      -0.05680                      -0.04427                       1.78734
                      -0.04957                      -0.03766                       1.78171
                      -0.01923                       0.00038                       1.81672
                       0.00582                       0.00229                       1.82420
                       0.04592                       0.05269                       1.78526
                       0.07447                       0.03833                       1.78077
                       0.01643                      -0.01156                       1.81344
                       0.00947                       0.00071                       1.80144
        </DataArray>
        <DataArray type="Float32" Name="TranslationalAcceleration" NumberOfComponents="3" format="ascii">
                      31.35052                       1.95356                       0.56351
                      11.69635                      -5.78896                      36.14655
                       7.58079                     -14.50270                      47.52855
                      23.47943                     -31.89116                      26.77661
                      29.39725                     -42.90693                      24.30213
                      29.05526                     -45.18562                      22.72897
                      17.04450                     -35.36765                      17.27641
                       3.90896                     -14.96055                       0.05648
                       0.12300                      -5.96894                      -0.46478
                      -0.03372                      -0.02287                      -0.15043
        </DataArray>
        <DataArray type="Float32" Name="OrientationX" NumberOfComponents="3" format="ascii">
                       0.07235                      -0.99738                       0.00005
                      -0.99728                      -0.07368                       0.00019
                      -0.99714                      -0.07557                       0.00095
                      -0.99726                      -0.07400                       0.00034
                      -0.99736                      -0.07265                      -0.00005
                      -0.99738                      -0.07228                      -0.00054
                      -0.99749                      -0.07085                      -0.00139
                      -0.99747                      -0.07107                       0.00050
                      -0.99743                      -0.07164                       0.00005
                      -0.99739                      -0.07212                      -0.00145
        </DataArray>
        <DataArray type="Float32" Name="OrientationY" NumberOfComponents="3" format="ascii">
                      -0.99738                      -0.07235                      -0.00109
                      -0.07368                       0.99728                       0.00040
                      -0.07557                       0.99714                       0.00132
                      -0.07400                       0.99726                       0.00061
                      -0.07265                       0.99736                       0.00011
                      -0.07228                       0.99738                      -0.00056
                      -0.07085                       0.99749                      -0.00138
                      -0.07107                       0.99747                      -0.00009
                      -0.07164                       0.99743                       0.00001
                      -0.07212                       0.99740                       0.00001
        </DataArray>
        <DataArray type="Float32" Name="OrientationZ" NumberOfComponents="3" format="ascii">
                       0.00109                       0.00003                      -1.00000
                      -0.00022                       0.00039                      -1.00000
                      -0.00105                       0.00125                      -1.00000
                      -0.00038                       0.00058                      -1.00000
                       0.00004                       0.00011                      -1.00000
                       0.00057                      -0.00052                      -1.00000
                       0.00148                      -0.00128                      -1.00000
                      -0.00049                      -0.00013                      -1.00000
                      -0.00005                       0.00001                      -1.00000
                       0.00144                       0.00012                      -1.00000
        </DataArray>
      </PointData>
      <Lines>
        <DataArray type="Int32" Name="connectivity" format="ascii">
      0      1
      1      2
      2      3
      3      4
      4      5
      5      6
      6      7
      7      8
      8      9
        </DataArray>
        <DataArray type="Int32" Name="offsets" format="ascii">
      2
      4
      6
      8
     10
     12
     14
     16
     18
        </DataArray>
      </Lines>
    </Piece>
  </PolyData>
</VTKFile>
