<?xml version="1.0"?>
<VTKFile type="PolyData" version="0.1" byte_order="LittleEndian">
  <PolyData>
    <Piece NumberOfPoints="    165" NumberOfVerts="  0" NumberOfLines="      0"
           NumberOfStrips="  0" NumberOfPolys="      0">
      <Points>
        <DataArray type="Float32" NumberOfComponents="3" format="ascii">
                       0.00085                       0.00014                     113.18284
                      -6.95978                      -0.12532                     109.51053
                     -13.44028                      -0.24213                     105.83801
                     -19.44068                      -0.35031                     102.16539
                     -21.14720                      -0.38108                     101.06361
                     -24.96107                      -0.44986                      98.49281
                     -30.00135                      -0.54079                      94.82011
                     -34.56147                      -0.62307                      91.14724
                     -38.64151                      -0.69669                      87.47433
                     -42.24153                      -0.76166                      83.80146
                     -45.36150                      -0.81796                      80.12858
                     -48.00146                      -0.86560                      76.45573
                     -50.16141                      -0.90458                      72.78292
                     -51.84133                      -0.93492                      69.11012
                     -53.04131                      -0.95659                      65.43736
                     -53.76134                      -0.96961                      61.76462
                     -54.00135                      -0.97395                      58.09188
                     -53.76131                      -0.96964                      54.41915
                     -53.04121                      -0.95665                      50.74643
                     -51.84117                      -0.93500                      47.07370
                     -50.16119                      -0.90470                      43.40093
                     -48.00121                      -0.86574                      39.72813
                     -45.36129                      -0.81811                      36.05528
                     -42.24139                      -0.76181                      32.38237
                     -38.64144                      -0.69683                      28.70946
                     -34.56149                      -0.62318                      25.03649
                     -30.00147                      -0.54086                      21.36355
                     -24.96124                      -0.44990                      17.69084
                     -21.14740                      -0.38110                      15.12003
                     -19.44090                      -0.35032                      14.01824
                     -13.44059                      -0.24216                      10.34555
                      -6.96029                      -0.12539                       6.67280
                       0.00002                       0.00000                       3.00001
                       0.00085                       0.00014                     113.18284
                       3.37222                       6.09102                     109.51025
                       6.51106                      11.76161                     105.83726
                       9.41736                      17.01190                     102.16392
                      10.24393                      18.50510                     101.06196
                      12.09142                      21.84254                      98.49124
                      14.53326                      26.25361                      94.81930
                      16.74255                      30.24453                      91.14711
                      18.71918                      33.81515                      87.47452
                      20.46321                      36.96558                      83.80171
                      21.97471                      39.69595                      80.12888
                      23.25366                      42.00626                      76.45603
                      24.30005                      43.89650                      72.78316
                      25.11391                      45.36668                      69.11027
                      25.69521                      46.41677                      65.43736
                      26.04396                      47.04678                      61.76447
                      26.16021                      47.25677                      58.09157
                      26.04394                      47.04675                      54.41869
                      25.69516                      46.41672                      50.74578
                      25.11384                      45.36661                      47.07288
                      24.29997                      43.89642                      43.39999
                      23.25356                      42.00616                      39.72711
                      21.97461                      39.69583                      36.05424
                      20.46310                      36.96542                      32.38141
                      18.71906                      33.81494                      28.70860
                      16.74243                      30.24429                      25.03598
                      14.53315                      26.25337                      21.36371
                      12.09134                      21.84235                      17.69161
                      10.24383                      18.50490                      15.12088
                       9.41722                      17.01167                      14.01898
                       6.51073                      11.76124                      10.34586
                       3.37167                       6.09069                       6.67286
                       0.00002                       0.00000                       3.00001
                       0.00085                       0.00014                     113.18284
                       3.58937                      -5.96537                     109.51025
                       6.93042                     -11.51925                     105.83730
                      10.02397                     -16.66151                     102.16409
                      10.90380                     -18.12397                     101.06215
                      12.87028                     -21.39265                      98.49137
                      15.46936                     -25.71277                      94.81925
                      17.82093                     -29.62143                      91.14697
                      19.92489                     -33.11850                      87.47437
                      21.78128                     -36.20408                      83.80160
                      23.39015                     -38.87825                      80.12880
                      24.75150                     -41.14102                      76.45599
                      25.86533                     -42.99236                      72.78314
                      26.73162                     -44.43227                      69.11027
                      27.35039                     -45.46075                      65.43739
                      27.72163                     -46.07780                      61.76450
                      27.84538                     -46.28348                      58.09162
                      27.72162                     -46.07778                      54.41875
                      27.35038                     -45.46070                      50.74586
                      26.73161                     -44.43220                      47.07298
                      25.86531                     -42.99226                      43.40011
                      24.75149                     -41.14090                      39.72726
                      23.39013                     -38.87811                      36.05444
                      21.78125                     -36.20389                      32.38165
                      19.92485                     -33.11827                      28.70888
                      17.82089                     -29.62117                      25.03626
                      15.46933                     -25.71253                      21.36389
                      12.87026                     -21.39249                      17.69161
                      10.90374                     -18.12383                      15.12081
                      10.02387                     -16.66134                      14.01892
                       6.93012                     -11.51901                      10.34588
                       3.58884                      -5.96523                       6.67291
                       0.00002                       0.00000                       3.00001
                      -0.09994                      -0.00179                      15.12016
                      -2.11470                      -0.03809                      15.12018
                      -4.22945                      -0.07619                      15.12021
                      -6.34420                      -0.11430                      15.12025
                      -8.45894                      -0.15241                      15.12028
                     -10.57369                      -0.19052                      15.12029
                     -12.68843                      -0.22864                      15.12028
                     -14.80318                      -0.26676                      15.12024
                     -16.91792                      -0.30487                      15.12017
                     -19.03266                      -0.34299                      15.12009
                     -21.14740                      -0.38110                      15.12003
                       0.04847                       0.08750                      15.12016
                       1.02443                       1.85050                      15.12021
                       2.04881                       3.70099                      15.12026
                       3.07319                       5.55148                      15.12032
                       4.09757                       7.40197                      15.12038
                       5.12195                       9.25246                      15.12044
                       6.14633                      11.10295                      15.12053
                       7.17070                      12.95344                      15.12062
                       8.19508                      14.80393                      15.12074
                       9.21945                      16.65442                      15.12083
                      10.24383                      18.50490                      15.12088
                       0.05159                      -0.08568                      15.12016
                       1.09041                      -1.81237                      15.12021
                       2.18078                      -3.62476                      15.12027
                       3.27115                      -5.43715                      15.12033
                       4.36152                      -7.24953                      15.12039
                       5.45189                      -9.06192                      15.12045
                       6.54226                     -10.87430                      15.12052
                       7.63263                     -12.68669                      15.12060
                       8.72300                     -14.49907                      15.12069
                       9.81337                     -16.31145                      15.12077
                      10.90374                     -18.12383                      15.12081
                      -0.09976                      -0.00175                     101.06286
                      -2.11452                      -0.03806                     101.06288
                      -4.22927                      -0.07616                     101.06290
                      -6.34401                      -0.11427                     101.06294
                      -8.45876                      -0.15239                     101.06300
                     -10.57350                      -0.19050                     101.06306
                     -12.68824                      -0.22862                     101.06314
                     -14.80299                      -0.26674                     101.06325
                     -16.91772                      -0.30485                     101.06338
                     -19.03246                      -0.34297                     101.06351
                     -21.14720                      -0.38108                     101.06361
                       0.04866                       0.08754                     101.06286
                       1.02461                       1.85055                     101.06290
                       2.04899                       3.70105                     101.06293
                       3.07336                       5.55155                     101.06293
                       4.09773                       7.40206                     101.06290
                       5.12210                       9.25257                     101.06281
                       6.14647                      11.10308                     101.06268
                       7.17084                      12.95358                     101.06251
                       8.19520                      14.80409                     101.06229
                       9.21957                      16.65459                     101.06209
                      10.24393                      18.50510                     101.06196
                       0.05178                      -0.08564                     101.06286
                       1.09060                      -1.81235                     101.06290
                       2.18096                      -3.62475                     101.06293
                       3.27133                      -5.43715                     101.06293
                       4.36168                      -7.24955                     101.06290
                       5.45204                      -9.06196                     101.06284
                       6.54239                     -10.87436                     101.06273
                       7.63275                     -12.68676                     101.06258
                       8.72310                     -14.49917                     101.06242
                       9.81345                     -16.31157                     101.06226
                      10.90380                     -18.12397                     101.06215
        </DataArray>
      </Points>
      <PointData>
        <DataArray type="Float32" Name="TranslationalVelocity" NumberOfComponents="3" format="ascii">
                       0.16908                       0.02944                      -0.01352
                       0.33312                     -12.52445                       0.07596
                       0.50330                     -24.21202                       0.12634
                       0.67273                     -35.03702                       0.15440
                       0.71957                     -38.11713                       0.16511
                       0.82355                     -45.00359                       0.19096
                       0.97838                     -54.10789                       0.20264
                       1.14478                     -62.34808                       0.18222
                       1.30579                     -69.72220                       0.15450
                       1.45258                     -76.22879                       0.13130
                       1.58906                     -81.86729                       0.10860
                       1.70650                     -86.63874                       0.09285
                       1.80576                     -90.54393                       0.08204
                       1.89178                     -93.58365                       0.07388
                       1.94691                     -95.75719                       0.07452
                       1.96937                     -97.06242                       0.08027
                       1.97843                     -97.49934                       0.08578
                       1.97709                     -97.06824                       0.09195
                       1.96569                     -95.76885                       0.10033
                       1.92468                     -93.60117                       0.10644
                       1.85097                     -90.56720                       0.10542
                       1.75565                     -86.66666                       0.09940
                       1.63039                     -81.89763                       0.08167
                       1.48103                     -76.25922                       0.05288
                       1.32135                     -69.75008                       0.02346
                       1.14040                     -62.37028                      -0.01840
                       0.95401                     -54.12225                      -0.05388
                       0.79052                     -45.01069                      -0.04322
                       0.68006                     -38.12107                      -0.01889
                       0.62831                     -35.04050                      -0.01114
                       0.44106                     -24.21767                       0.00514
                       0.23163                     -12.53886                       0.00772
                       0.00316                       0.00064                       0.00236
                       0.16908                       0.02944                      -0.01352
                     -10.84222                       6.17780                       0.02143
                     -21.09800                      11.85512                      -0.02510
                     -30.60098                      17.06222                      -0.14022
                     -33.29986                      18.54487                      -0.16578
                     -39.29196                      21.92589                      -0.12211
                     -47.16624                      26.46445                       0.04065
                     -54.28939                      30.56250                       0.15702
                     -60.68211                      34.18748                       0.19066
                     -66.33414                      37.36272                       0.18250
                     -71.23270                      40.11454                       0.16867
                     -75.37870                      42.44258                       0.15151
                     -78.77382                      44.34397                       0.12959
                     -81.41674                      45.82086                       0.10472
                     -83.30965                      46.86800                       0.07671
                     -84.45014                      47.48840                       0.04905
                     -84.83213                      47.69300                       0.02373
                     -84.45490                      47.48307                      -0.00136
                     -83.31875                      46.85801                      -0.02848
                     -81.42973                      45.80675                      -0.05600
                     -78.78996                      44.32645                      -0.08144
                     -75.39685                      42.42241                      -0.10605
                     -71.25282                      40.08962                      -0.12541
                     -66.35671                      37.32982                      -0.13907
                     -60.70608                      34.14636                      -0.14892
                     -54.31345                      30.51432                      -0.12070
                     -47.18716                      26.41652                      -0.02093
                     -39.30817                      21.88728                       0.11200
                     -33.32087                      18.50503                       0.15172
                     -30.62980                      17.01403                       0.13715
                     -21.16360                      11.78077                       0.06625
                     -10.95202                       6.10952                       0.01973
                       0.00316                       0.00064                       0.00236
                       0.16908                       0.02944                      -0.01352
                      10.87111                       6.41613                       0.01990
                      20.83437                      12.40407                      -0.01515
                      30.05819                      17.99280                      -0.10729
                      32.68557                      19.58224                      -0.12856
                      38.59313                      23.08333                      -0.09629
                      46.44160                      27.65574                       0.03223
                      53.54627                      31.79640                       0.12762
                      59.88821                      35.53005                       0.15996
                      65.47482                      38.84016                       0.15912
                      70.31676                      41.70733                       0.15279
                      74.41341                      44.13272                       0.14249
                      77.76276                      46.12046                       0.12597
                      80.36623                      47.66930                       0.10512
                      82.22217                      48.78201                       0.08090
                      83.33208                      49.45562                       0.05648
                      83.70135                      49.68184                       0.03363
                      83.33072                      49.45987                       0.01088
                      82.21964                      48.79055                      -0.01324
                      80.36270                      47.68254                      -0.03701
                      77.75878                      46.13849                      -0.05804
                      74.40976                      44.15519                      -0.07628
                      70.31284                      41.73590                      -0.08757
                      65.46941                      38.87755                      -0.09228
                      59.88118                      35.57629                      -0.09248
                      53.53803                      31.84810                      -0.06422
                      46.43471                      27.70284                       0.01399
                      38.58825                      23.11580                       0.11207
                      32.67354                      19.61066                       0.13830
                      30.03755                      18.02615                       0.12593
                      20.77393                      12.45104                       0.07064
                      10.76307                       6.44346                       0.02968
                       0.00316                       0.00064                       0.00236
                       0.01173                      -0.17788                       0.00778
                       0.07508                      -3.80789                       0.01116
                       0.14164                      -7.61888                       0.01826
                       0.20830                     -11.43061                       0.02590
                       0.27510                     -15.24294                       0.03172
                       0.34206                     -19.05575                       0.03403
                       0.40923                     -22.86889                       0.03166
                       0.47662                     -26.68221                       0.02386
                       0.54429                     -30.49552                       0.01042
                       0.61204                     -34.30854                      -0.00533
                       0.68006                     -38.12107                      -0.01889
                      -0.14910                       0.08945                       0.00778
                      -3.32291                       1.85206                       0.01799
                      -6.65474                       3.70239                       0.02864
                      -9.98703                       5.55289                       0.03944
                     -13.31971                       7.40351                       0.05114
                     -16.65274                       9.25418                       0.06473
                     -19.98605                      11.10481                       0.08113
                     -23.31958                      12.95535                       0.10073
                     -26.65327                      14.80572                       0.12299
                     -29.98706                      16.65558                       0.14252
                     -33.32087                      18.50503                       0.15172
                       0.16283                       0.09507                       0.00778
                       3.27520                       1.96274                       0.01883
                       6.54197                       3.92310                       0.03022
                       9.80870                       5.88350                       0.04144
                      13.07539                       7.84401                       0.05303
                      16.34205                       9.80464                       0.06575
                      19.60866                      11.76545                       0.08023
                      22.87519                      13.72643                       0.09662
                      26.14157                      15.68761                       0.11415
                      29.40770                      17.64903                       0.12971
                      32.67354                      19.61066                       0.13830
                       0.04837                      -0.17019                       0.01462
                       0.11182                      -3.80100                       0.01783
                       0.17853                      -7.61274                       0.02354
                       0.24537                     -11.42509                       0.03120
                       0.31239                     -15.23792                       0.04104
                       0.37962                     -19.05110                       0.05378
                       0.44709                     -22.86451                       0.07032
                       0.51483                     -26.67801                       0.09139
                       0.58288                     -30.49142                       0.11709
                       0.65107                     -34.30450                       0.14361
                       0.71957                     -38.11713                       0.16511
                      -0.11246                       0.09714                       0.01462
                      -3.28683                       1.86214                       0.02280
                      -6.61975                       3.71529                       0.02869
                      -9.95348                       5.56885                       0.02912
                     -13.28783                       7.42267                       0.02191
                     -16.62265                       9.27665                       0.00547
                     -19.95780                      11.13068                      -0.02095
                     -23.29318                      12.98465                      -0.05681
                     -26.62870                      14.83850                      -0.09954
                     -29.96429                      16.69187                      -0.14027
                     -33.29986                      18.54487                      -0.16578
                       0.19946                       0.10276                       0.01462
                       3.31207                       1.96867                       0.02223
                       6.57795                       3.92646                       0.02784
                       9.84291                       5.88374                       0.02865
                      13.10720                       7.84071                       0.02290