# vtk DataFile Version 2.0
BldPointCP.BldC
ASCII
 
DATASET POLYDATA
POINTS 9 double
  0.59089835E+001 -0.98210802E+001  0.10635487E+003
  0.14483213E+002 -0.24073707E+002  0.94569349E+002
  0.21323977E+002 -0.35444105E+002  0.82326992E+002
  0.25956479E+002 -0.43143877E+002  0.70073486E+002
  0.27454291E+002 -0.45633454E+002  0.58091612E+002
  0.25956497E+002 -0.43143855E+002  0.46109789E+002
  0.21323969E+002 -0.35443823E+002  0.33856301E+002
  0.14483183E+002 -0.24073395E+002  0.21613741E+002
  0.59085888E+001 -0.98210523E+001  0.98280077E+001
  
POINT_DATA 9
SCALARS Gamma_LL double
LOOKUP_TABLE default
  0.00000000E+000
  0.00000000E+000
  0.00000000E+000
  0.00000000E+000
  0.00000000E+000
  0.00000000E+000
  0.00000000E+000
  0.00000000E+000
  0.00000000E+000
VECTORS Vind_CP double
  0.00000000E+000  0.00000000E+000  0.00000000E+000
  0.00000000E+000  0.00000000E+000  0.00000000E+000
  0.00000000E+000  0.00000000E+000  0.00000000E+000
  0.00000000E+000  0.00000000E+000  0.00000000E+000
  0.00000000E+000  0.00000000E+000  0.00000000E+000
  0.00000000E+000  0.00000000E+000  0.00000000E+000
  0.00000000E+000  0.00000000E+000  0.00000000E+000
  0.00000000E+000  0.00000000E+000  0.00000000E+000
  0.00000000E+000  0.00000000E+000  0.00000000E+000
VECTORS Vtot_CP double
 -0.58789890E+000 -0.10624220E+002  0.75920642E-001
 -0.26305792E+002 -0.25888336E+002 -0.11097881E-001
 -0.46922969E+002 -0.38019448E+002 -0.13817198E+000
 -0.60840252E+002 -0.46291154E+002 -0.10861671E+000
 -0.65332138E+002 -0.48976201E+002 -0.33716375E-001
 -0.60839231E+002 -0.46306757E+002  0.41612141E-001
 -0.46921539E+002 -0.38059411E+002  0.73024215E-001
 -0.26298081E+002 -0.25930896E+002 -0.27807742E-001
 -0.50728079E+000 -0.10626722E+002 -0.77714598E-001
VECTORS Vstr_CP double
  0.17787899E+002  0.10624220E+002 -0.75920642E-001
  0.43505792E+002  0.25888336E+002  0.11097881E-001
  0.64122969E+002  0.38019448E+002  0.13817198E+000
  0.78040252E+002  0.46291154E+002  0.10861671E+000
  0.82532138E+002  0.48976201E+002  0.33716375E-001
  0.78039231E+002  0.46306757E+002 -0.41612141E-001
  0.64121539E+002  0.38059411E+002 -0.73024215E-001
  0.43498081E+002  0.25930896E+002  0.27807742E-001
  0.17707281E+002  0.10626722E+002  0.77714598E-001
VECTORS Vwnd_CP double
  0.17200000E+002 -0.00000000E+000  0.00000000E+000
  0.17200000E+002 -0.00000000E+000  0.00000000E+000
  0.17200000E+002 -0.00000000E+000  0.00000000E+000
  0.17200000E+002 -0.00000000E+000  0.00000000E+000
  0.17200000E+002 -0.00000000E+000  0.00000000E+000
  0.17200000E+002 -0.00000000E+000  0.00000000E+000
  0.17200000E+002 -0.00000000E+000  0.00000000E+000
  0.17200000E+002 -0.00000000E+000  0.00000000E+000
  0.17200000E+002 -0.00000000E+000  0.00000000E+000
VECTORS Tangent double
 -0.69235231E+000 -0.72155962E+000  0.26248560E-004
 -0.85686290E+000 -0.51554434E+000  0.48297829E-004
 -0.85686291E+000 -0.51554433E+000  0.38646191E-004
 -0.85685585E+000 -0.51555607E+000  0.16766551E-004
 -0.85683504E+000 -0.51559064E+000 -0.10242790E-004
 -0.85685316E+000 -0.51556053E+000 -0.32504752E-004
 -0.85686844E+000 -0.51553514E+000 -0.15184128E-004
 -0.85686948E+000 -0.51553341E+000 -0.33797500E-006
 -0.85687382E+000 -0.51552620E+000 -0.31720333E-004
VECTORS Normal double
  0.37899406E+000 -0.36362217E+000  0.85096558E+000
  0.33267052E+000 -0.55284503E+000  0.76399784E+000
  0.36610310E+000 -0.60843063E+000  0.70411696E+000
  0.46191309E+000 -0.76768660E+000  0.44417741E+000
  0.51559064E+000 -0.85683504E+000  0.63075750E-005
  0.46191955E+000 -0.76767472E+000 -0.44419123E+000
  0.36607917E+000 -0.60843766E+000 -0.70412332E+000
  0.33264071E+000 -0.55288253E+000 -0.76398368E+000
  0.26386983E+000 -0.43853425E+000 -0.85910443E+000
VECTORS Orth double
  0.61401285E+000 -0.58917793E+000 -0.52522146E+000
  0.39384806E+000 -0.65465747E+000 -0.64521880E+000
  0.36297999E+000 -0.60334585E+000 -0.71008401E+000
  0.22898549E+000 -0.38060376E+000 -0.89593885E+000
  0.12028508E-004 -0.12346456E-006 -0.10000000E+001
 -0.22898251E+000  0.38062168E+000 -0.89593200E+000
 -0.36299108E+000  0.60334661E+000 -0.71007771E+000
 -0.39385893E+000  0.65463441E+000 -0.64523557E+000
 -0.44287693E+000  0.73615246E+000 -0.51180032E+000
