# vtk DataFile Version 2.0
BldPointCP.BldC
ASCII
 
DATASET POLYDATA
POINTS 9 double
  0.71528248E+001 -0.89926319E+001  0.10632211E+003
  0.17431557E+002 -0.22095616E+002  0.94551261E+002
  0.25670260E+002 -0.32557143E+002  0.82360398E+002
  0.31232407E+002 -0.39590359E+002  0.70100983E+002
  0.33013663E+002 -0.41828424E+002  0.58094432E+002
  0.31221415E+002 -0.39548063E+002  0.46095892E+002
  0.25658023E+002 -0.32505189E+002  0.33834099E+002
  0.17416295E+002 -0.22070154E+002  0.21613109E+002
  0.70996833E+001 -0.89978111E+001  0.98389376E+001
  
POINT_DATA 9
SCALARS Gamma_LL double
LOOKUP_TABLE default
  0.40307935E+002
  0.78883779E+002
  0.55757413E+002
  0.68182051E+002
  0.82010533E+002
  0.78109832E+002
  0.70331007E+002
  0.84043411E+002
  0.23558086E+002
VECTORS Vind_CP double
 -0.90464068E-001 -0.13648743E+000 -0.23816483E+000
 -0.73137662E-001  0.88206438E-001 -0.16711177E+000
 -0.85866915E-001  0.85233694E-001 -0.78610061E-001
 -0.20246788E+000  0.20049265E+000 -0.83261257E-001
 -0.31746012E+000  0.32986340E+000  0.36723727E-002
 -0.24312923E+000  0.24626638E+000  0.11512723E+000
 -0.12802393E+000  0.13491680E+000  0.13046509E+000
 -0.12178362E+000  0.13347721E+000  0.19405997E+000
 -0.59566105E-001 -0.72568987E-001  0.47609047E-001
VECTORS Vtot_CP double
 -0.59815263E+000 -0.13235237E+002  0.47049128E+000
 -0.23779288E+002 -0.30593929E+002  0.33690174E+000
 -0.42847150E+002 -0.44444057E+002 -0.71537486E+000
 -0.55221309E+002 -0.55177490E+002 -0.60350249E+000
 -0.58922864E+002 -0.59557786E+002  0.39728379E-001
 -0.55006380E+002 -0.56367835E+002  0.49976002E+000
 -0.42401691E+002 -0.45903244E+002  0.73381095E+000
 -0.23161967E+002 -0.31147731E+002  0.36756408E+000
  0.85400876E+000 -0.12926565E+002 -0.64603691E-001
VECTORS Vstr_CP double
  0.17707689E+002  0.13098749E+002 -0.70865611E+000
  0.40906150E+002  0.30682136E+002 -0.50401351E+000
  0.59961283E+002  0.44529291E+002  0.63676480E+000
  0.72218841E+002  0.55377982E+002  0.52024124E+000
  0.75805404E+002  0.59887649E+002 -0.36056006E-001
  0.71963251E+002  0.56614101E+002 -0.38463279E+000
  0.59473667E+002  0.46038161E+002 -0.60334586E+000
  0.40240184E+002  0.31281209E+002 -0.17350411E+000
  0.16286425E+002  0.12853996E+002  0.11221274E+000
VECTORS Vwnd_CP double
  0.17200000E+002 -0.00000000E+000  0.00000000E+000
  0.17200000E+002 -0.00000000E+000  0.00000000E+000
  0.17200000E+002 -0.00000000E+000  0.00000000E+000
  0.17200000E+002 -0.00000000E+000  0.00000000E+000
  0.17200000E+002 -0.00000000E+000  0.00000000E+000
  0.17200000E+002 -0.00000000E+000  0.00000000E+000
  0.17200000E+002 -0.00000000E+000  0.00000000E+000
  0.17200000E+002 -0.00000000E+000  0.00000000E+000
  0.17200000E+002 -0.00000000E+000  0.00000000E+000
VECTORS Tangent double
 -0.59341464E+000 -0.80489682E+000  0.42266640E-003
 -0.78432009E+000 -0.62035356E+000  0.18603921E-002
 -0.78812517E+000 -0.61551464E+000  0.66730822E-003
 -0.78656001E+000 -0.61751372E+000 -0.39290179E-003
 -0.78408803E+000 -0.62064957E+000 -0.25904004E-003
 -0.78533911E+000 -0.61906573E+000 -0.31735064E-003
 -0.78635784E+000 -0.61777128E+000 -0.13275399E-004
 -0.78472649E+000 -0.61984218E+000  0.11367903E-003
 -0.78446642E+000 -0.62016766E+000 -0.21223905E-002
VECTORS Normal double
  0.42531909E+000 -0.31312295E+000  0.84915116E+000
  0.39895039E+000 -0.50209648E+000  0.76729245E+000
  0.43633139E+000 -0.55792771E+000  0.70592605E+000
  0.55466085E+000 -0.70678036E+000  0.43910462E+000
  0.62064867E+000 -0.78408603E+000 -0.20788818E-002
  0.55561015E+000 -0.70461388E+000 -0.44138038E+000
  0.43825516E+000 -0.55783756E+000 -0.70480471E+000
  0.39851839E+000 -0.50466878E+000 -0.76582799E+000
  0.31920280E+000 -0.40082916E+000 -0.85874651E+000
VECTORS Orth double
  0.68334672E+000 -0.50407850E+000 -0.52814973E+000
  0.47505851E+000 -0.60254509E+000 -0.64129465E+000
  0.43413551E+000 -0.55664926E+000 -0.70828523E+000
  0.27143083E+000 -0.34516421E+000 -0.89843585E+000
 -0.10871474E-002  0.17907992E-002 -0.99999781E+000
 -0.27301986E+000  0.34680960E+000 -0.89732004E+000
 -0.43540070E+000  0.55423453E+000 -0.70940138E+000
 -0.47474986E+000  0.60092021E+000 -0.64304547E+000
 -0.53171610E+000  0.67433527E+000 -0.51239627E+000
