<?xml version="1.0"?>
<VTKFile type="PolyData" version="0.1" byte_order="LittleEndian">
  <PolyData>
    <Piece NumberOfPoints="     10" NumberOfVerts="  0" NumberOfLines="      9"
           NumberOfStrips="  0" NumberOfPolys="      0">
      <Points>
        <DataArray type="Float32" NumberOfComponents="3" format="ascii">
                       0.11200                      -0.06832                     101.06352
                       1.62746                      -1.85045                     101.05427
                       3.14247                      -3.63299                     101.04418
                       4.65722                      -5.41574                     101.03345
                       6.17162                      -7.19878                     101.02224
                       7.68307                      -8.98485                     101.01127
                       9.19790                     -10.76750                     101.00070
                      10.71225                     -12.55055                     100.99128
                      12.22576                     -14.33429                     100.98355
                      13.73862                     -16.11857                     100.97985
        </DataArray>
      </Points>
      <PointData>
        <DataArray type="Float32" Name="TranslationalVelocity" NumberOfComponents="3" format="ascii">
                       1.14155                       0.25881                       0.00286
                       4.37415                       3.00538                      -0.20499
                       7.60996                       5.75315                      -0.41830
                      10.84784                       8.50195                      -0.63009
                      14.08728                      11.25102                      -0.83330
                      17.33576                      13.99420                      -1.01992
                      20.57454                      16.74400                      -1.18226
                      23.81295                      19.49188                      -1.31444
                      27.05079                      22.23653                      -1.40965
                      30.28713                      24.97776                      -1.46089
        </DataArray>
        <DataArray type="Float32" Name="RotationalVelocity" NumberOfComponents="3" format="ascii">
                       0.07116                       0.05005                       1.81199
                       0.06676                       0.06056                       1.81334
                       0.06029                       0.07003                       1.81444
                       0.05190                       0.07787                       1.81524
                       0.04159                       0.08407                       1.81571
                       0.01529                       0.09163                       1.81569
                      -0.00060                       0.09305                       1.81518
                      -0.01826                       0.09292                       1.81433
                      -0.03785                       0.09103                       1.81313
                      -0.05921                       0.08758                       1.81158
        </DataArray>
        <DataArray type="Float32" Name="TranslationalAcceleration" NumberOfComponents="3" format="ascii">
                      11.14713                      -2.82646                      -0.09522
                      10.56108                      -1.79388                      -1.11511
                      10.25874                      -0.94213                      -2.17952
                      10.01882                      -0.03607                      -3.19006
                       9.83724                       0.91837                      -4.13383
                      14.63906                      -2.92975                      -5.68447
                      14.58188                      -1.87644                      -6.54594
                      14.54988                      -0.80734                      -7.34127
                      14.55251                       0.26215                      -8.13885
                      14.56650                       1.32404                      -9.04011
        </DataArray>
        <DataArray type="Float32" Name="OrientationX" NumberOfComponents="3" format="ascii">
                       0.00226                      -0.00186                       1.00000
                       0.00259                      -0.00228                       0.99999
                       0.00291                      -0.00267                       0.99999
                       0.00318                      -0.00299                       0.99999
                       0.00340                      -0.00323                       0.99999
                       0.00361                      -0.00338                       0.99999
                       0.00352                      -0.00320                       0.99999
                       0.00329                      -0.00283                       0.99999
                       0.00158                      -0.00100                       1.00000
                      -0.00183                       0.00657                       0.99998
        </DataArray>
        <DataArray type="Float32" Name="OrientationY" NumberOfComponents="3" format="ascii">
                      -0.75976                      -0.65021                       0.00051
                      -0.75983                      -0.65012                       0.00049
                      -0.75996                      -0.64997                       0.00048
                      -0.76017                      -0.64972                       0.00048
                      -0.76049                      -0.64935                       0.00049
                      -0.76161                      -0.64804                       0.00055
                      -0.76255                      -0.64692                       0.00061
                      -0.76377                      -0.64549                       0.00069
                      -0.76471                      -0.64437                       0.00056
                      -0.75680                      -0.65364                       0.00290
        </DataArray>
        <DataArray type="Float32" Name="OrientationZ" NumberOfComponents="3" format="ascii">
                       0.65020                      -0.75975                      -0.00288
                       0.65011                      -0.75983                      -0.00342
                       0.64996                      -0.75996                      -0.00392
                       0.64972                      -0.76016                      -0.00434
                       0.64934                      -0.76048                      -0.00467
                       0.64803                      -0.76160                      -0.00491
                       0.64691                      -0.76255                      -0.00472
                       0.64548                      -0.76376                      -0.00428
                       0.64437                      -0.76471                      -0.00179
                       0.65364                      -0.75678                       0.00617
        </DataArray>
      </PointData>
      <Lines>
        <DataArray type="Int32" Name="connectivity" format="ascii">
      0      1
      1      2
      2      3
      3      4
      4      5
      5      6
      6      7
      7      8
      8      9
        </DataArray>
        <DataArray type="Int32" Name="offsets" format="ascii">
      2
      4
      6
      8
     10
     12
     14
     16
     18
        </DataArray>
      </Lines>
    </Piece>
  </PolyData>
</VTKFile>
