# vtk DataFile Version 2.0
BldPointCP.BldA
ASCII
 
DATASET POLYDATA
POINTS 9 double
 -0.11326114E+002 -0.14400593E+001  0.10639966E+003
 -0.27853272E+002 -0.35542007E+001  0.94656372E+002
 -0.40993740E+002 -0.52509683E+001  0.82398366E+002
 -0.49873742E+002 -0.64070918E+001  0.70123139E+002
 -0.52750612E+002 -0.67855201E+001  0.58139565E+002
 -0.49877757E+002 -0.64165317E+001  0.46156674E+002
 -0.40998233E+002 -0.52604320E+001  0.33878472E+002
 -0.27866535E+002 -0.35590614E+001  0.21611006E+002
 -0.11369732E+002 -0.14487816E+001  0.98265422E+001
  
POINT_DATA 9
SCALARS Gamma_LL double
LOOKUP_TABLE default
 -0.38266154E+001
 -0.11048758E+003
 -0.96801330E+002
 -0.90032760E+002
 -0.89688879E+002
 -0.85493586E+002
 -0.89374969E+002
 -0.10715760E+003
 -0.54436325E+002
VECTORS Vind_CP double
  0.45888029E-001 -0.13431338E+000  0.54416383E-001
 -0.24548504E+000  0.22791670E-002  0.25303470E+000
 -0.26821678E+000 -0.11898901E-001  0.19298315E+000
 -0.37581071E+000 -0.26322858E-001  0.12639663E+000
 -0.46186581E+000 -0.36143703E-001  0.14825940E-002
 -0.35641183E+000 -0.29208809E-001 -0.11432477E+000
 -0.24517688E+000 -0.14910042E-001 -0.17225340E+000
 -0.25612992E+000 -0.10889342E-001 -0.25161609E+000
 -0.99734621E-001 -0.89277112E-002 -0.44219893E-001
VECTORS Vtot_CP double
  0.13360040E+002  0.20320329E+002 -0.11813747E+001
  0.98926617E+001  0.50900982E+002 -0.22567385E+001
  0.62228706E+001  0.75362491E+002 -0.20310978E+001
  0.32006716E+001  0.92109799E+002 -0.14687172E+001
  0.22373882E+001  0.97690774E+002 -0.14768726E+001
  0.33247665E+001  0.92288367E+002 -0.14249390E+001
  0.64903838E+001  0.75540010E+002 -0.78712513E+000
  0.10369410E+002  0.50991776E+002 -0.27216141E+000
  0.14475480E+002  0.20669978E+002 -0.35279915E-001
VECTORS Vstr_CP double
  0.38858481E+001 -0.20454643E+002  0.12357910E+001
  0.70618533E+001 -0.50898703E+002  0.25097732E+001
  0.10708913E+002 -0.75374390E+002  0.22240810E+001
  0.13623518E+002 -0.92136122E+002  0.15951139E+001
  0.14500746E+002 -0.97726918E+002  0.14783552E+001
  0.13518822E+002 -0.92317576E+002  0.13106142E+001
  0.10464439E+002 -0.75554920E+002  0.61487174E+000
  0.65744605E+001 -0.51002666E+002  0.20545317E-001
  0.26247853E+001 -0.20678906E+002 -0.89399781E-002
VECTORS Vwnd_CP double
  0.17200000E+002  0.00000000E+000  0.00000000E+000
  0.17200000E+002  0.00000000E+000  0.00000000E+000
  0.17200000E+002  0.00000000E+000  0.00000000E+000
  0.17200000E+002  0.00000000E+000  0.00000000E+000
  0.17200000E+002  0.00000000E+000  0.00000000E+000
  0.17200000E+002  0.00000000E+000  0.00000000E+000
  0.17200000E+002  0.00000000E+000  0.00000000E+000
  0.17200000E+002  0.00000000E+000  0.00000000E+000
  0.17200000E+002  0.00000000E+000  0.00000000E+000
VECTORS Tangent double
 -0.79753942E+000  0.60326144E+000 -0.25528891E-002
 -0.12986031E+000  0.99153200E+000  0.77033626E-003
 -0.12978809E+000  0.99154140E+000  0.83373904E-003
 -0.12617959E+000  0.99200741E+000 -0.13084760E-003
 -0.12433631E+000  0.99224010E+000 -0.24766730E-003
 -0.12321582E+000  0.99237954E+000 -0.84702385E-003
 -0.12309458E+000  0.99239481E+000 -0.50759164E-003
 -0.12426551E+000  0.99224899E+000  0.15753908E-003
 -0.12532998E+000  0.99211510E+000  0.14030475E-003
VECTORS Normal double
 -0.38998906E+000 -0.51234566E+000  0.76512120E+000
 -0.63899283E+000 -0.84282494E-001  0.76458134E+000
 -0.70661355E+000 -0.93082194E-001  0.70145063E+000
 -0.88921126E+000 -0.11304584E+000  0.44331025E+000
 -0.99224008E+000 -0.12433622E+000  0.35849846E-003
 -0.88951944E+000 -0.11082284E+000 -0.44325327E+000
 -0.70745620E+000 -0.88110059E-001 -0.70124342E+000
 -0.64035001E+000 -0.80073732E-001 -0.76389794E+000
 -0.50767863E+000 -0.64011531E-001 -0.85916525E+000
VECTORS Orth double
 -0.46026016E+000 -0.61120992E+000 -0.64388122E+000
 -0.75817179E+000 -0.98796529E-001 -0.64452678E+000
 -0.69559495E+000 -0.90450806E-001 -0.71271756E+000
 -0.43975226E+000 -0.56053057E-001 -0.89636823E+000
 -0.32492254E-003 -0.29031979E-003 -0.99999991E+000
  0.43996934E+000  0.53862373E-001 -0.89639602E+000
  0.69595506E+000  0.85960163E-001 -0.71292174E+000
  0.75796434E+000  0.95027050E-001 -0.64533705E+000
  0.85238184E+000  0.10775039E+000 -0.51169820E+000
