# vtk DataFile Version 2.0
Sgmt
ASCII
 
DATASET POLYDATA
POINTS 1170 double
  0.16528708E+000  0.33431411E-001  0.11318119E+003
 -0.20084996E+002 -0.40654835E+001  0.10112783E+003
 -0.34333284E+002 -0.69832312E+001  0.88931989E+002
 -0.46097448E+002 -0.94398361E+001  0.76593593E+002
 -0.52002023E+002 -0.10685032E+002  0.64335419E+002
 -0.52011229E+002 -0.10697962E+002  0.52091866E+002
 -0.46106257E+002 -0.94662118E+001  0.39836432E+002
 -0.34334010E+002 -0.69843946E+001  0.27489767E+002
 -0.20144261E+002 -0.40764860E+001  0.15240237E+002
  0.18547346E-003  0.46441717E-004  0.30001762E+001
 -0.42452858E+001 -0.85828028E+000  0.11314000E+003
 -0.20973757E+002  0.25632840E+000  0.10112657E+003
 -0.34968263E+002 -0.39521599E+001  0.88934588E+002
 -0.46580299E+002 -0.70323149E+001  0.76588513E+002
 -0.52430497E+002 -0.84703255E+001  0.64331956E+002
 -0.52447911E+002 -0.84401698E+001  0.52094712E+002
 -0.46598128E+002 -0.69128652E+001  0.39835220E+002
 -0.34993812E+002 -0.36229197E+001  0.27492865E+002
 -0.21020535E+002  0.33737167E+000  0.15242033E+002
 -0.88559329E+000  0.44120065E+001  0.30022742E+001
 -0.41158193E+001 -0.78698458E+000  0.11314148E+003
 -0.20810197E+002  0.64097974E+000  0.10112170E+003
 -0.34876515E+002 -0.33040559E+001  0.88908708E+002
 -0.46572661E+002 -0.61642727E+001  0.76576422E+002
 -0.52464321E+002 -0.74890234E+001  0.64315890E+002
 -0.52478527E+002 -0.74566445E+001  0.52068785E+002
 -0.46587265E+002 -0.60424804E+001  0.39806519E+002
 -0.34899860E+002 -0.29776136E+001  0.27477439E+002
 -0.20848799E+002  0.72279185E+000  0.15236254E+002
 -0.63675508E+000  0.44261549E+001  0.30100926E+001
 -0.39833707E+001 -0.71472878E+000  0.11314274E+003
 -0.20636399E+002  0.10240683E+001  0.10111447E+003
 -0.34768378E+002 -0.26569581E+001  0.88881248E+002
 -0.46540617E+002 -0.52959309E+001  0.76562202E+002
 -0.52472813E+002 -0.65065732E+001  0.64299943E+002
 -0.52486436E+002 -0.64718745E+001  0.52044930E+002
 -0.46555406E+002 -0.51710262E+001  0.39781166E+002
 -0.34790282E+002 -0.23320549E+001  0.27465862E+002
 -0.20667725E+002  0.11070300E+001  0.15232378E+002
 -0.38779814E+000  0.44385657E+001  0.30146146E+001
 -0.38476657E+001 -0.64130401E+000  0.11314408E+003
 -0.20453024E+002  0.14056517E+001  0.10110193E+003
 -0.34644653E+002 -0.20110211E+001  0.88853149E+002
 -0.46488268E+002 -0.44272927E+001  0.76548341E+002
 -0.52454986E+002 -0.55236754E+001  0.64285346E+002
 -0.52466388E+002 -0.54869378E+001  0.52024148E+002
 -0.46500555E+002 -0.42994022E+001  0.39760055E+002
 -0.34665027E+002 -0.16867361E+001  0.27458572E+002
 -0.20477123E+002  0.14897963E+001  0.15229483E+002
 -0.13852679E+000  0.44493825E+001  0.30175297E+001
 -0.37085146E+001 -0.56591045E+000  0.11314514E+003
 -0.20258233E+002  0.17851620E+001  0.10107871E+003
 -0.34504547E+002 -0.13668433E+001  0.88823867E+002
 -0.46410331E+002 -0.35596727E+001  0.76532270E+002
 -0.52404422E+002 -0.45417870E+001  0.64270268E+002
 -0.52413946E+002 -0.45031518E+001  0.52007549E+002
 -0.46419772E+002 -0.34287157E+001  0.39745233E+002
 -0.34522692E+002 -0.10426256E+001  0.27456453E+002
 -0.20281623E+002  0.18705621E+001  0.15224063E+002
  0.11124408E+000  0.44588146E+001  0.30203539E+001
 -0.35655268E+001 -0.48937218E+000  0.11314671E+003
 -0.20071720E+002  0.21630309E+001  0.10107493E+003
 -0.34348936E+002 -0.72456090E+000  0.88794643E+002
 -0.46307756E+002 -0.26937539E+001  0.76514345E+002
 -0.52321294E+002 -0.35620882E+001  0.64255425E+002
 -0.52329057E+002 -0.35217504E+001  0.51994847E+002
 -0.46314535E+002 -0.25597824E+001  0.39736158E+002
 -0.34364511E+002 -0.39986446E+000  0.27458440E+002
 -0.20084318E+002  0.22499875E+001  0.15211859E+002
  0.36161997E+000  0.44669919E+001  0.30229330E+001
 -0.34184583E+001 -0.41170780E+000  0.11314872E+003
 -0.19858946E+002  0.25405972E+001  0.10104482E+003
 -0.34178156E+002 -0.84470243E-001  0.88766024E+002
 -0.46180388E+002 -0.18303641E+001  0.76494735E+002
 -0.52205736E+002 -0.25858811E+001  0.64240657E+002
 -0.52211869E+002 -0.25440925E+001  0.51986515E+002
 -0.46184987E+002 -0.16935214E+001  0.39732800E+002
 -0.34190987E+002  0.24108598E+000  0.27464139E+002
 -0.19866930E+002  0.26285918E+001  0.15215178E+002
  0.61265635E+000  0.44740121E+001  0.30250836E+001
 -0.32670536E+001 -0.33300614E+000  0.11315095E+003
 -0.19637969E+002  0.29167414E+001  0.10101549E+003
 -0.33993488E+002  0.55347628E+000  0.88739581E+002
 -0.46035450E+002 -0.96977027E+000  0.76477414E+002
 -0.52061209E+002 -0.16138494E+001  0.64226811E+002
 -0.52065643E+002 -0.15709102E+001  0.51982133E+002
 -0.46037591E+002 -0.83037997E+000  0.39732016E+002
 -0.34003349E+002  0.88002536E+000  0.27472363E+002
 -0.19641776E+002  0.30055460E+001  0.15217948E+002
  0.86465233E+000  0.44801268E+001  0.30261848E+001
 -0.31111295E+001 -0.25339553E+000  0.11315300E+003
 -0.19408211E+002  0.32911968E+001  0.10098945E+003
 -0.33795841E+002  0.11892309E+001  0.88716537E+002
 -0.45869930E+002 -0.11204008E+000  0.76461322E+002
 -0.51904270E+002 -0.64545666E+000  0.64217312E+002
 -0.51906435E+002 -0.60182114E+000  0.51978418E+002
 -0.45870424E+002  0.29534984E-001  0.39734595E+002
 -0.33802916E+002  0.15168062E+001  0.27481569E+002
 -0.19409414E+002  0.33808126E+001  0.15221361E+002
  0.11168566E+001  0.44848412E+001  0.30275799E+001
 -0.29504054E+001 -0.17313960E+000  0.11315415E+003
 -0.19170674E+002  0.36644090E+001  0.10096772E+003
 -0.33585537E+002  0.18226687E+001  0.88697859E+002
 -0.45681714E+002  0.74238738E+000  0.76446142E+002
 -0.51728682E+002  0.31966804E+000  0.64210614E+002
 -0.51728956E+002  0.36352959E+000  0.51977154E+002
 -0.45682276E+002  0.88581652E+000  0.39741127E+002
 -0.33591068E+002  0.21512771E+001  0.27491011E+002
 -0.19169972E+002  0.37538850E+001  0.15224178E+002
  0.13692449E+001  0.44880362E+001  0.30293714E+001
 -0.27845771E+001 -0.92419185E-001  0.11315420E+003
 -0.18926637E+002  0.40348308E+001  0.10092953E+003
 -0.33367111E+002  0.24541074E+001  0.88687203E+002
 -0.45477942E+002  0.15934808E+001  0.76435224E+002
 -0.51528192E+002  0.12808723E+001  0.64204687E+002
 -0.51527450E+002  0.13246575E+001  0.51979910E+002
 -0.45478799E+002  0.17382233E+001  0.39748231E+002
 -0.33384996E+002  0.27850743E+001  0.27480994E+002
 -0.18924066E+002  0.41254714E+001  0.15234902E+002
  0.16216129E+001  0.44900686E+001  0.30304285E+001
 -0.26145744E+001 -0.11473241E-001  0.11315365E+003
 -0.18676074E+002  0.44056983E+001  0.10091509E+003
 -0.33156251E+002  0.30864963E+001  0.88700204E+002
 -0.45260963E+002  0.24423003E+001  0.76428310E+002
 -0.51315645E+002  0.22394970E+001  0.64201846E+002
 -0.51313837E+002  0.22831253E+001  0.51982217E+002
 -0.45260469E+002  0.25874576E+001  0.39754205E+002
 -0.33160067E+002  0.34161839E+001  0.27477261E+002
 -0.18671229E+002  0.44950991E+001  0.15241788E+002
  0.18738680E+001  0.44906490E+001  0.30317427E+001
  0.16528708E+000  0.33431411E-001  0.11318119E+003
  0.66122730E+001  0.19492822E+002  0.10083254E+003
  0.11232149E+002  0.33337473E+002  0.88723874E+002
  0.15120458E+002  0.44889182E+002  0.76532336E+002
  0.17013912E+002  0.50512182E+002  0.64216687E+002
  0.17004980E+002  0.50457811E+002  0.51956311E+002
  0.15099025E+002  0.44783065E+002  0.39669817E+002
  0.11220183E+002  0.33276726E+002  0.27425126E+002
  0.65687452E+001  0.19474110E+002  0.15263152E+002
  0.18547346E-003  0.46441717E-004  0.30001762E+001
  0.31346550E+001 -0.33478006E+001  0.11319233E+003
  0.10772040E+002  0.18021684E+002  0.10082602E+003
  0.14169478E+002  0.32356314E+002  0.88719248E+002
  0.17454721E+002  0.44127249E+002  0.76531730E+002
  0.19150668E+002  0.49789134E+002  0.64216727E+002
  0.19179706E+002  0.49710222E+002  0.51956036E+002
  0.17566575E+002  0.43962877E+002  0.39669176E+002
  0.14468673E+002  0.32189445E+002  0.27425284E+002
  0.10829225E+002  0.18025555E+002  0.15263653E+002
  0.42638318E+001 -0.14388637E+001  0.30294677E+001
  0.32196928E+001 -0.34043925E+001  0.11318389E+003
  0.11258786E+002  0.17827998E+002  0.10082594E+003
  0.14916626E+002  0.32079545E+002  0.88717643E+002
  0.18414218E+002  0.43776719E+002  0.76521474E+002
  0.20218737E+002  0.49422922E+002  0.64215789E+002
  0.20246753E+002  0.49353327E+002  0.51959980E+002
  0.18524740E+002  0.43627378E+002  0.39679803E+002
  0.15214447E+002  0.31913012E+002  0.27436880E+002
  0.11322825E+002  0.17824972E+002  0.15267144E+002
  0.44081477E+001 -0.15144549E+001  0.30324269E+001
  0.33052413E+001 -0.34598612E+001  0.11317754E+003
  0.11743882E+002  0.17629248E+002  0.10082864E+003
  0.15658794E+002  0.31791795E+002  0.88715412E+002
  0.19366235E+002  0.43412326E+002  0.76510801E+002
  0.21279052E+002  0.49040644E+002  0.64214651E+002
  0.21306772E+002  0.48979775E+002  0.51963890E+002
  0.19477000E+002  0.43278181E+002  0.39689679E+002
  0.15955301E+002  0.31626420E+002  0.27447920E+002
  0.11813189E+002  0.17619457E+002  0.15269938E+002
  0.45507182E+001 -0.15904405E+001  0.30348564E+001
  0.33917109E+001 -0.35139408E+001  0.11317460E+003
  0.12227140E+002  0.17425570E+002  0.10083714E+003
  0.16396146E+002  0.31494120E+002  0.88713429E+002
  0.20310844E+002  0.43035142E+002  0.76500177E+002
  0.22332354E+002  0.48645154E+002  0.64213603E+002
  0.22360607E+002  0.48592654E+002  0.51967275E+002
  0.20422986E+002  0.42915621E+002  0.39698988E+002
  0.16691268E+002  0.31330297E+002  0.27457619E+002
  0.12300364E+002  0.17409274E+002  0.15271383E+002
  0.46923319E+001 -0.16655113E+001  0.30378612E+001
  0.34794362E+001 -0.35661450E+001  0.11317052E+003
  0.12708446E+002  0.17216827E+002  0.10085001E+003
  0.17128408E+002  0.31186726E+002  0.88711568E+002
  0.21248272E+002  0.42646466E+002  0.76490195E+002
  0.23379232E+002  0.48238557E+002  0.64213140E+002
  0.23408769E+002  0.48193991E+002  0.51969488E+002
  0.21363037E+002  0.42541090E+002  0.39706594E+002
  0.17422295E+002  0.31025078E+002  0.27465593E+002
  0.12784338E+002  0.17194525E+002  0.15271261E+002
  0.48329325E+001 -0.17399805E+001  0.30357429E+001
[...]
CELL_DATA 2133
SCALARS Gamma double
LOOKUP_TABLE default
 -0.50095155E+001
  0.50095155E+001
 -0.16144714E+003
  0.15643763E+003
 -0.14392381E+003
 -0.17523329E+002
 -0.12148782E+003
 -0.22435994E+002
 -0.11515820E+003
 -0.63296223E+001
 -0.10810995E+003
 -0.70482410E+001
 -0.11885418E+003
  0.10744228E+002
 -0.14990370E+003
  0.31049517E+002
 -0.71660577E+002
 -0.78243123E+002
 -0.71660577E+002
  0.00000000E+000
  0.50095155E+001
  0.00000000E+000
  0.15643763E+003
  0.00000000E+000
 -0.17523329E+002
  0.00000000E+000
 -0.22435994E+002
  0.00000000E+000
 -0.63296223E+001
  0.00000000E+000
 -0.70482410E+001
  0.00000000E+000
  0.10744228E+002
  0.00000000E+000
  0.31049517E+002
  0.00000000E+000
 -0.78243123E+002
 -0.71660577E+002
 -0.13997529E+000
  0.51494908E+001
 -0.92830764E-001
  0.15639048E+003
  0.52297140E+000
 -0.18139131E+002
 -0.23503403E+001
 -0.19562683E+002
 -0.39115262E+001
 -0.47684364E+001
 -0.50048418E+001
 -0.59549254E+001
 -0.29758320E+001
  0.87152186E+001
 -0.17509083E+001
  0.29824593E+002
 -0.21431196E+001
 -0.77850912E+002
 -0.73803696E+002
  0.14837073E-001
  0.51346537E+001
  0.48806848E+001
  0.15152463E+003
  0.49326920E+001
 -0.18191138E+002
  0.12062066E+001
 -0.15836197E+002
 -0.13701543E+000
 -0.34252144E+001
 -0.79400306E+000
 -0.52979378E+001
  0.88270414E+000
  0.70385114E+001
  0.29489499E+001
  0.27758347E+002
  0.14956181E+000
 -0.75051524E+002
 -0.73654135E+002
  0.47592712E+000
  0.46587266E+001
  0.18303795E+002
  0.13369677E+003
  0.16748446E+002
 -0.16635789E+002
  0.12128025E+002
 -0.11215776E+002
  0.10640676E+002
 -0.19378658E+001
  0.10099609E+002
 -0.47568714E+001
  0.11731022E+002
  0.54070988E+001
  0.15972660E+002
  0.23516710E+002
  0.67350539E+001
 -0.65813918E+002
 -0.66919081E+002
  0.83211125E+000
  0.38266154E+001
  0.27867914E+002
  0.10666096E+003
  0.24918373E+002
 -0.13686248E+002
  0.20471167E+002
 -0.67685699E+001
  0.18877183E+002
 -0.34388132E+000
  0.18315604E+002
 -0.41952929E+001
  0.19841319E+002
  0.38813838E+001
  0.25575396E+002
  0.17782634E+002
  0.12482756E+002
 -0.52721278E+002
 -0.54436325E+002
  0.99235881E+000
  0.28342566E+001
  0.31099255E+002
  0.76554066E+002
  0.27415886E+002
 -0.10002878E+002
  0.23975277E+002
 -0.33279609E+001
  0.23038709E+002
  0.59268608E+000
  0.22064967E+002
 -0.32215504E+001
  0.23517145E+002
  0.24292057E+001
  0.29201645E+002
  0.12098133E+002
  0.14721714E+002
 -0.38241348E+002
 -0.39714610E+002
  0.10427003E+001
  0.17915563E+001
  0.30769127E+002
  0.46827639E+002
  0.26983230E+002
 -0.62169816E+001
  0.24776825E+002
 -0.11215561E+001
  0.24504431E+002
  0.86508056E+000
  0.23208485E+002
 -0.19256050E+001
  0.24544431E+002
  0.10932602E+001
  0.29638113E+002
  0.70044515E+001
  0.14999923E+002
 -0.23603158E+002
 -0.24714688E+002
  0.97299534E+000
  0.81856091E+000
  0.27077488E+002
  0.20723147E+002
  0.23657597E+002
 -0.27970910E+001
  0.22649332E+002
 -0.11329133E+000
  0.22929610E+002
  0.58480337E+000
  0.21802107E+002
 -0.79810264E+000
  0.22590109E+002
  0.30525857E+000
  0.26662817E+002
  0.29317436E+001
  0.13579584E+002
 -0.10519925E+002
 -0.11135103E+002
  0.64872544E+000
  0.16983547E+000
  0.17225887E+002
  0.41459856E+001
  0.14985761E+002
 -0.55696483E+000
  0.14823631E+002
  0.48838483E-001
  0.15253043E+002
  0.15539132E+000
  0.14596251E+002
 -0.14131106E+000
  0.14877618E+002
  0.23892066E-001
  0.17257262E+002
  0.55209979E+000
  0.88586096E+001
 -0.21212729E+001
 -0.22764939E+001
  0.16779964E+000
  0.20358333E-002
  0.42656912E+001
  0.48093971E-001
  0.37150864E+001
 -0.63599538E-002
  0.37625785E+001
  0.13463489E-002
  0.39157448E+001
  0.22250323E-002
  0.37758405E+001
 -0.14067937E-002
  0.37998844E+001
 -0.15175484E-003
  0.43459621E+001
  0.60219938E-002
  0.22494345E+001
 -0.24745317E-001
 -0.27059359E-001
  0.20358333E-002
  0.00000000E+000
  0.00000000E+000
  0.50129804E-001
 -0.00000000E+000
  0.00000000E+000
  0.43769850E-001
 -0.00000000E+000
  0.00000000E+000
  0.45116199E-001
 -0.00000000E+000
  0.00000000E+000
  0.47341231E-001
 -0.00000000E+000
  0.00000000E+000
  0.45934438E-001
 -0.00000000E+000
  0.00000000E+000
  0.45782683E-001
 -0.00000000E+000
  0.00000000E+000
  0.51804677E-001
 -0.00000000E+000
  0.00000000E+000
  0.27059359E-001
 -0.00000000E+000
  0.00000000E+000
 -0.00000000E+000
  0.11487674E+003
 -0.11487674E+003
  0.54509432E+002
  0.60367311E+002
  0.21238922E+002
  0.33270510E+002
  0.31578756E+002
 -0.10339834E+002
  0.54134381E+002
 -0.22555625E+002
  0.46517198E+002
  0.76171830E+001
  0.32831361E+002
  0.13685837E+002
  0.46126820E+002
 -0.13295459E+002
  0.53508508E+002
 -0.73816885E+001
  0.53508508E+002
  0.00000000E+000
 -0.11487674E+003
  0.00000000E+000
  0.60367311E+002
  0.00000000E+000
  0.33270510E+002
  0.00000000E+000
 -0.10339834E+002
  0.00000000E+000
 -0.22555625E+002
  0.00000000E+000
  0.76171830E+001
  0.00000000E+000
  0.13685837E+002
  0.00000000E+000
 -0.13295459E+002
  0.00000000E+000
 -0.73816885E+001
  0.53508508E+002
  0.62716214E+000
 -0.11550391E+003
  0.10896381E+001
  0.59904835E+002
  0.13834750E+001
  0.32976673E+002
  0.30181911E+001
 -0.11974550E+002
  0.27747242E+001
 -0.22312158E+002
  0.24218867E+001
  0.79700206E+001
  0.21885717E+001
  0.13919152E+002
  0.29364170E+001
 -0.14043304E+002
  0.26655115E+001
 -0.71107830E+001
  0.56174020E+002
 -0.28959937E+001
 -0.11260791E+003
 -0.48009835E+000
  0.57488939E+002
  0.10877219E+001
  0.31408853E+002
  0.19778335E+001
 -0.12864662E+002
  0.71827404E+000
 -0.21052598E+002
  0.73400206E+000
  0.79542925E+001
  0.12293416E+001
  0.13423813E+002
  0.15715189E+001
 -0.14385482E+002
  0.92866735E+000
 -0.64679314E+001
  0.57102687E+002
 -0.12602314E+002
 -0.10000560E+003
 -0.52290479E+001
  0.50115674E+002
 -0.75883078E+000
  0.26938636E+002
 -0.15209807E+001
 -0.12102512E+002
 -0.48403114E+001
 -0.17733268E+002
 -0.39698689E+001
  0.70838501E+001
 -0.20334040E+001
  0.11487348E+002
 -0.30433522E+001
 -0.13375534E+002
 -0.43170140E+001
 -0.51942696E+001
  0.52785673E+002
 -0.19765346E+002
 -0.80240252E+002
 -0.88862138E+001
  0.39236541E+002
 -0.26267096E+001
  0.20679132E+002
 -0.48235155E+001
 -0.99057057E+001
 -0.93638934E+001
 -0.13192890E+002
 -0.78432373E+001
  0.55631940E+001
 -0.49671768E+001
  0.86112870E+001
 -0.71011572E+001
 -0.11241553E+002
 -0.86556926E+001
 -0.36397342E+001
  0.44129981E+002
 -0.22240400E+002
 -0.57999852E+002
 -0.10510455E+002
  0.27506596E+002
 -0.39498849E+001
  0.14118562E+002
 -0.68456066E+001
 -0.70099840E+001
 -0.11448451E+002
 -0.85900453E+001
 -0.96926403E+001
  0.38073832E+001
 -0.66721349E+001
  0.55907816E+001
 -0.94491412E+001
 -0.84645468E+001
 -0.10904937E+002
 -0.21839384E+001
  0.33225043E+002
 -0.22238158E+002
 -0.35761694E+002
 -0.11071798E+002
  0.16340236E+002
 -0.50772428E+001
  0.81240071E+001
 -0.80530541E+001
 -0.40341727E+001
 -0.12045193E+002
 -0.45979064E+001
 -0.10367287E+002
  0.21294770E+001
 -0.77188607E+001
  0.29423555E+001
 -0.10764720E+002
 -0.54186876E+001
 -0.11897044E+002
 -0.10516144E+001
  0.21328000E+002
 -0.19801747E+002
 -0.15959946E+002
 -0.10431548E+002
  0.69700364E+001
 -0.56400549E+001
  0.33325139E+001
 -0.81041948E+001
 -0.15700328E+001
 -0.11011162E+002
 -0.16909396E+001
 -0.96864267E+001
  0.80474206E+000
 -0.77734533E+001
  0.10293821E+001
 -0.10713530E+002
 -0.24786105E+001
 -0.11444404E+002
 -0.32074043E+000
  0.98835952E+001
 -0.12734296E+002
 -0.32256505E+001
 -0.70919756E+001
  0.13277161E+001
 -0.43707978E+001
  0.61133605E+000
 -0.56838027E+001
 -0.25702784E+000
 -0.71110926E+001
 -0.26364967E+000
 -0.64318326E+001
  0.12548201E+000
 -0.55503317E+001
  0.14788120E+000
 -0.75239556E+001
 -0.50498659E+000
 -0.78048641E+001
 -0.39831881E-001
  0.20787311E+001
 -0.31878192E+001
 -0.37831218E-001
 -0.18745597E+001
  0.14456477E-001
 -0.12697514E+001
  0.65277625E-002
 -0.15248765E+001
 -0.19027177E-002
 -0.17864326E+001
 -0.20935815E-002
 -0.16619089E+001
  0.95830135E-003
 -0.15148379E+001
  0.81028700E-003
 -0.20138719E+001
 -0.59526030E-002
 -0.20534908E+001
 -0.21301071E-003
  0.25240302E-001
 -0.37831218E-001
 -0.00000000E+000
 -0.00000000E+000
 -0.23374740E-001
 -0.00000000E+000
 -0.00000000E+000
 -0.16846978E-001
 -0.00000000E+000
 -0.00000000E+000
 -0.18749696E-001
 -0.00000000E+000
 -0.00000000E+000
 -0.20843277E-001
 -0.00000000E+000
 -0.00000000E+000
 -0.19884976E-001
 -0.00000000E+000
 -0.00000000E+000
 -0.19074689E-001
 -0.00000000E+000
 -0.00000000E+000
 -0.25027292E-001
 -0.00000000E+000
 -0.00000000E+000
 -0.25240302E-001
 -0.00000000E+000
 -0.00000000E+000
  0.00000000E+000
  0.51647466E+002
 -0.51647466E+002
  0.97738212E+002
 -0.46090746E+002
  0.70404471E+002
  0.27333741E+002
  0.84394105E+002
 -0.13989635E+002
  0.10013231E+003
 -0.15738207E+002
  0.97654972E+002
  0.24773410E+001
  0.87943123E+002
  0.97118486E+001
  0.10280359E+003
 -0.14860467E+002
  0.29406983E+002
  0.73396608E+002
  0.29406983E+002
  0.00000000E+000
 -0.51647466E+002
  0.00000000E+000
 -0.46090746E+002
  0.00000000E+000
  0.27333741E+002
  0.00000000E+000
 -0.13989635E+002
  0.00000000E+000
 -0.15738207E+002
  0.00000000E+000
  0.24773410E+001
  0.00000000E+000
  0.97118486E+001
  0.00000000E+000
 -0.14860467E+002
  0.00000000E+000
  0.73396608E+002
  0.29406983E+002
 -0.15138546E+001
 -0.50133611E+002
 -0.19359266E+001
 -0.45668674E+002
 -0.20075771E+001
  0.27405391E+002
 -0.16190547E+001
 -0.14378157E+002
 -0.11653775E+001
 -0.16191885E+002
 -0.20317160E+001
  0.33436796E+001
 -0.20053873E+001
  0.96855198E+001
 -0.16678422E+001
 -0.15198012E+002
 -0.64603767E+000
  0.72374803E+002
  0.28760945E+002
 -0.30068415E+001
 -0.47126770E+002
 -0.47207272E+001
 -0.43954788E+002
 -0.37978442E+001
  0.26482508E+002
 -0.40482626E+001
 -0.14127739E+002
 -0.43459059E+001
 -0.15894241E+002
 -0.49767692E+001
  0.39745430E+001
 -0.44853409E+001
  0.91940915E+001
 -0.45649217E+001
 -0.15118432E+002
 -0.14880132E+001
  0.69297894E+002
  0.27272932E+002
 -0.68188349E+001
 -0.40307935E+002
 -0.12197779E+002
 -0.38575845E+002
 -0.88416361E+001
  0.23126366E+002
 -0.10544737E+002
 -0.12424638E+002
 -0.12610496E+002
 -0.13828482E+002
 -0.12536655E+002
  0.39007012E+001
 -0.11121388E+002
  0.77788247E+001
 -0.12527415E+002
 -0.13712404E+002
 -0.37148458E+001
  0.60485325E+002
  0.23558086E+002
 -0.91277294E+001
 -0.31180205E+002
 -0.17022088E+002
 -0.30681486E+002
 -0.12027814E+002
  0.18132092E+002
 -0.14779134E+002
 -0.96733181E+001
 -0.17931352E+002
 -0.10676264E+002
 -0.17347197E+002
  0.33165460E+001
 -0.15364989E+002
  0.57966173E+001
 -0.17791989E+002
 -0.11285405E+002
 -0.51326887E+001
  0.47826025E+002
  0.18425397E+002
 -0.94285308E+001
 -0.21751674E+002
 -0.18113224E+002
 -0.21996792E+002
 -0.12637587E+002
  0.12656455E+002
 -0.15700499E+002
 -0.66104064E+001
 -0.19124492E+002
 -0.72522709E+001
 -0.18240085E+002
  0.24321392E+001
 -0.16208555E+002
  0.37650876E+001
 -0.19134557E+002
 -0.83594026E+001
 -0.54301888E+001
  0.34121657E+002
  0.12995209E+002
 -0.88111280E+001
 -0.12940546E+002
 -0.17364621E+002
 -0.13443300E+002
 -0.12134860E+002
  0.74266936E+001
 -0.15020160E+002
 -0.37251056E+001
 -0.18202912E+002
 -0.40695191E+001
 -0.17222675E+002
  0.14519017E+001
 -0.15451635E+002
  0.19940483E+001
 -0.18533877E+002
 -0.52771613E+001
 -0.51786026E+001
  0.20766383E+002
  0.78166061E+001
 -0.73888130E+001
 -0.55517334E+001
 -0.14859403E+002
 -0.59727103E+001
 -0.10531808E+002
  0.30990986E+001
 -0.12815353E+002
 -0.14415602E+001
 -0.15308397E+002
 -0.15764755E+001
 -0.14442329E+002
  0.58583389E+000
 -0.13152417E+002
  0.70413672E+000
 -0.16048524E+002
 -0.23810543E+001
 -0.44178333E+001
  0.91356917E+001
  0.33987728E+001
 -0.44720828E+001
 -0.10796506E+001
 -0.92379513E+001
 -0.12068418E+001
 -0.67130300E+001
  0.57417728E+000
 -0.79160876E+001
 -0.23850265E+000
 -0.92326540E+001
 -0.25990912E+000
 -0.87457936E+001
  0.98973503E-001
 -0.81446344E+001
  0.10297754E+000
 -0.10049450E+002
 -0.47623825E+000
 -0.27284752E+001
  0.18147164E+001
  0.67029763E+000
 -0.10674822E+001
 -0.12168383E-001
 -0.22601309E+001
 -0.14193089E-001
 -0.16920466E+001
  0.60929708E-002
 -0.19286953E+001
 -0.18539712E-002
 -0.21864031E+001
 -0.22012529E-002
 -0.20882739E+001
  0.84422521E-003
 -0.19858451E+001
  0.54879671E-003
 -0.24566168E+001
 -0.54665826E-002
 -0.66265053E+000
  0.20750192E-001
  0.76470951E-002
 -0.12168383E-001
 -0.00000000E+000
 -0.00000000E+000
 -0.26361473E-001
 -0.00000000E+000
 -0.00000000E+000
 -0.20268502E-001
 -0.00000000E+000
 -0.00000000E+000
 -0.22122473E-001
 -0.00000000E+000
 -0.00000000E+000
 -0.24323726E-001
 -0.00000000E+000
 -0.00000000E+000
 -0.23479501E-001
 -0.00000000E+000
 -0.00000000E+000
 -0.22930704E-001
 -0.00000000E+000
 -0.00000000E+000
 -0.28397287E-001
 -0.00000000E+000
 -0.00000000E+000
 -0.76470951E-002
 -0.00000000E+000
 -0.00000000E+000
  0.00000000E+000
  0.21913517E+001
 -0.21913517E+001
  0.26349500E+001
 -0.44359834E+000
  0.87514200E+000
  0.17598080E+001
  0.81909756E+000
  0.56044436E-001
 -0.40033681E+000
  0.12194344E+001
 -0.10233200E+001
  0.62298320E+000
 -0.17294960E+001
  0.70617601E+000
 -0.23749160E+001
  0.64541997E+000
 -0.37737943E+001
  0.13988783E+001
 -0.37737943E+001
  0.00000000E+000
 -0.21913517E+001
  0.00000000E+000
 -0.44359834E+000
  0.00000000E+000
  0.17598080E+001
  0.00000000E+000
  0.56044436E-001
  0.00000000E+000
  0.12194344E+001
  0.00000000E+000
  0.62298320E+000
  0.00000000E+000
  0.70617601E+000
  0.00000000E+000
  0.64541997E+000
  0.00000000E+000
  0.13988783E+001
 -0.37737943E+001
 -0.31499761E+000
 -0.18763541E+001
  0.41640248E+000
 -0.11749984E+001
 -0.24159889E-001
  0.22003704E+001
 -0.67634145E-002
  0.38647962E-001
  0.38102358E-001
  0.11745686E+001
  0.73807161E-001
  0.58727839E+000
  0.13787923E+000
  0.64210394E+000
  0.20458412E+000
  0.57871509E+000
  0.29232950E+000
  0.13111330E+001
 -0.34814648E+001
 -0.24670707E+000
 -0.16296470E+001
  0.17395061E+000
 -0.15956561E+001
 -0.41926253E-001
  0.24162473E+001
 -0.63482724E-001
  0.60204433E-001
  0.32319316E-001
  0.10787666E+001
  0.87746644E-001
  0.53185107E+000
  0.17351125E+000
  0.55633933E+000
  0.25865135E+000
  0.49357499E+000
  0.39225920E+000
  0.11775251E+001
 -0.30892056E+001
 -0.10570517E+001
 -0.57259528E+000
 -0.35038312E+000
 -0.23023247E+001
 -0.20086932E+000
  0.22667335E+001
 -0.18880066E+000
  0.48135774E-001
  0.17671221E-001
  0.87229468E+000
  0.12194670E+000
  0.42757559E+000
  0.24948669E+000
  0.42879934E+000
  0.36975895E+000
  0.37330273E+000
  0.58930042E+000
  0.95798365E+000
 -0.24999052E+001
 -0.99894903E+000
  0.42635375E+000
 -0.64478693E+000
 -0.26564868E+001
 -0.23838032E+000
  0.18603269E+001
 -0.21502493E+000
  0.24780382E-001
  0.31551424E-001
  0.62571833E+000
  0.15364677E+000
  0.30548024E+000
  0.28903656E+000
  0.29340954E+000
  0.41200876E+000
  0.25033053E+000
  0.66406051E+000
  0.70593190E+000
 -0.18358447E+001
 -0.26953729E+000
  0.69589104E+000
 -0.74847230E+000
 -0.21775518E+001
 -0.17123205E+000
  0.12830866E+001
 -0.17877234E+000
  0.32320669E-001
  0.49585216E-001
  0.39736077E+000
  0.15674226E+000
  0.19832320E+000
  0.27025338E+000
  0.17989843E+000
  0.37051212E+000
  0.15007179E+000
  0.60449651E+000
  0.47194751E+000
 -0.12313482E+001
  0.49003459E+000
  0.20585645E+000
 -0.72094390E+000
 -0.96657333E+000
 -0.10196453E+000
  0.66410724E+000
 -0.12279575E+000
  0.53151884E-001
  0.63897965E-001
  0.21066706E+000
  0.15246794E+000
  0.10975322E+000
  0.24066590E+000
  0.91700472E-001
  0.31558484E+000
  0.75152854E-001
  0.51858801E+000
  0.26894434E+000
 -0.71276020E+000
  0.22058251E+000
 -0.14726060E-001
 -0.50525433E+000
 -0.24073648E+000
 -0.71576945E-001
  0.23042985E+000
 -0.54497242E-001
  0.36072180E-001
  0.77342782E-001
  0.78827037E-001
  0.14351446E+000
  0.43581542E-001
  0.20182208E+000
  0.33392851E-001
  0.24991818E+000
  0.27056754E-001
  0.40676106E+000
  0.11210146E+000
 -0.30599914E+000
  0.11591051E-002
 -0.15885165E-001
 -0.21969885E+000
 -0.19878529E-001
 -0.24307034E-001
  0.35038042E-001
  0.29444707E-002
  0.88206752E-002
  0.68706243E-001
  0.13065265E-001
  0.10477999E+000
  0.75077901E-002
  0.13285900E+000
  0.53138460E-002
  0.15551724E+000
  0.43985183E-002
  0.24588546E+000
  0.21733232E-001
 -0.60113674E-001
 -0.15695824E-001
 -0.18934076E-003
 -0.35522716E-001
 -0.51637527E-004
 -0.78145232E-003
  0.29677866E-003
  0.79265796E-002
  0.11264327E-003
  0.20867785E-001
  0.12405976E-003
  0.28305413E-001
  0.70162431E-004
  0.33575191E-001
  0.44067848E-004
  0.37937774E-001
  0.35934829E-004
  0.59422186E-001
  0.24882016E-003
 -0.69148868E-003
 -0.18934076E-003
 -0.00000000E+000
 -0.00000000E+000
 -0.24097829E-003
 -0.00000000E+000
 -0.00000000E+000
  0.55800373E-004
  0.00000000E+000
  0.00000000E+000
  0.16844364E-003
 -0.00000000E+000
  0.00000000E+000
  0.29250341E-003
 -0.00000000E+000
  0.00000000E+000
  0.36266584E-003
 -0.00000000E+000
  0.00000000E+000
  0.40673368E-003
 -0.00000000E+000
  0.00000000E+000
  0.44266851E-003
 -0.00000000E+000
  0.00000000E+000
  0.69148868E-003
 -0.00000000E+000
  0.00000000E+000
 -0.00000000E+000
 -0.27554939E+001
  0.27554939E+001
  0.82062198E+000
 -0.35761159E+001
 -0.68878416E+000
  0.15094061E+001
 -0.92500840E+000
  0.23622424E+000
 -0.99802280E+000
  0.73014405E-001
 -0.52772952E+000
 -0.47029328E+000
 -0.23607205E+000
 -0.29165748E+000
  0.15733330E+000
 -0.39340535E+000
  0.84007731E+000
 -0.68274402E+000
  0.84007731E+000
  0.00000000E+000
  0.27554939E+001
  0.00000000E+000
 -0.35761159E+001
  0.00000000E+000
  0.15094061E+001
  0.00000000E+000
  0.23622424E+000
  0.00000000E+000
  0.73014405E-001
  0.00000000E+000
 -0.47029328E+000
  0.00000000E+000
 -0.29165748E+000
  0.00000000E+000
 -0.39340535E+000
  0.00000000E+000
 -0.68274402E+000
  0.84007731E+000
  0.13590934E+000
  0.26195845E+001
 -0.13885612E+000
 -0.33013504E+001
 -0.19281878E+000
  0.15633688E+001
 -0.27191870E+000
  0.31532415E+000
 -0.36114238E+000
  0.16223809E+000
 -0.43871542E+000
 -0.39272024E+000
 -0.44102712E+000
 -0.28934578E+000
 -0.40457397E+000
 -0.42985849E+000
 -0.38999178E+000
 -0.69732620E+000
  0.45008553E+000
  0.21468478E+000
  0.24048998E+001
 -0.21210089E+000
 -0.28745647E+001
 -0.19528505E+000
  0.15465530E+001
 -0.27989553E+000
  0.39993464E+000
 -0.36232088E+000
  0.24466343E+000
 -0.45388096E+000
 -0.30116015E+000
 -0.46980644E+000
 -0.27342030E+000
 -0.44443509E+000
 -0.45522984E+000
 -0.45940475E+000
 -0.68235654E+000
 -0.93192215E-002
  0.68749813E+000
  0.17174016E+001
 -0.40296462E+000
 -0.17841020E+001
 -0.12195554E+000
  0.12655439E+001
 -0.16102772E+000
  0.43900683E+000
 -0.19502796E+000
  0.27866367E+000
 -0.29576750E+000
 -0.20042062E+000
 -0.33397593E+000
 -0.23521187E+000
 -0.35204491E+000
 -0.43716086E+000
 -0.43443606E+000
 -0.59996540E+000
 -0.44375528E+000
  0.76514165E+000
  0.95225998E+000
 -0.32420413E+000
 -0.69475619E+000
  0.40776031E-001
  0.90056370E+000
  0.63221910E-001
  0.41656095E+000
  0.69103156E-001
  0.27278242E+000
 -0.27352933E-001
 -0.10396453E+000
 -0.87291753E-001
 -0.17527305E+000
 -0.15216663E+000
 -0.37228598E+000
 -0.28583563E+000
 -0.46629640E+000
 -0.72959091E+000
  0.47420960E+000
  0.47805039E+000
 -0.97755064E-001
 -0.12279153E+000
  0.19338113E+000
  0.60942751E+000
  0.27144919E+000
  0.33849289E+000
  0.31126593E+000
  0.23296568E+000
  0.24305729E+000
 -0.35755882E-001
  0.18070122E+000
 -0.11291699E+000
  0.86345378E-001
 -0.27793014E+000
 -0.64917146E-001
 -0.31503387E+000
 -0.79450805E+000
  0.20790046E+000
  0.27014992E+000
  0.10999486E+000
 -0.24885930E-001
  0.33387990E+000
  0.38554246E+000
  0.44346670E+000
  0.22890609E+000
  0.50596707E+000
  0.17046531E+000
  0.46053396E+000
  0.96772320E-002
  0.39777944E+000
 -0.50162472E-001
  0.28551796E+000
 -0.16566866E+000
  0.13741367E+000
 -0.16692958E+000
 -0.65709438E+000
  0.16639608E+000
  0.10375385E+000
  0.12917388E+000
  0.12336271E-001
  0.35113219E+000
  0.16358415E+000
  0.47595892E+000