<?xml version="1.0"?>
<VTKFile type="PolyData" version="0.1" byte_order="LittleEndian">
  <PolyData>
    <Piece NumberOfPoints="     10" NumberOfVerts="  0" NumberOfLines="      9"
           NumberOfStrips="  0" NumberOfPolys="      0">
      <Points>
        <DataArray type="Float32" NumberOfComponents="3" format="ascii">
                       0.04551                       0.08926                      15.12034
                       1.10395                       2.17516                      15.12125
                       2.16236                       4.26107                      15.12222
                       3.22077                       6.34698                      15.12315
                       4.27918                       8.43290                      15.12402
                       5.33685                      10.51928                      15.12531
                       6.39527                      12.60517                      15.12597
                       7.45367                      14.69106                      15.12654
                       8.51206                      16.77695                      15.12687
                       9.57044                      18.86283                      15.12681
        </DataArray>
      </Points>
      <PointData>
        <DataArray type="Float32" Name="TranslationalVelocity" NumberOfComponents="3" format="ascii">
                      -0.15436                       0.08500                       0.00727
                      -3.91358                       1.99336                       0.09085
                      -7.67343                       3.90199                       0.17210
                     -11.43389                       5.81087                       0.24663
                     -15.19491                       7.71994                       0.31048
                     -18.95720                       9.62830                       0.35917
                     -22.71925                      11.53755                       0.38920
                     -26.48170                      13.44681                       0.39917
                     -30.24453                      15.35586                       0.38698
                     -34.00771                      17.26478                       0.35093
        </DataArray>
        <DataArray type="Float32" Name="RotationalVelocity" NumberOfComponents="3" format="ascii">
                       0.04097                       0.00243                       1.80221
                       0.04003                       0.00022                       1.80246
                       0.03757                      -0.00127                       1.80272
                       0.03377                      -0.00204                       1.80296
                       0.02876                      -0.00212                       1.80319
                       0.01547                      -0.00053                       1.80357
                       0.00759                       0.00093                       1.80372
                      -0.00059                       0.00256                       1.80385
                      -0.01038                       0.00463                       1.80398
                      -0.01922                       0.00618                       1.80410
        </DataArray>
        <DataArray type="Float32" Name="TranslationalAcceleration" NumberOfComponents="3" format="ascii">
                      -1.11945                      -0.17166                       0.20529
                      -1.39014                      -0.66973                       3.27964
                      -1.42763                      -0.89410                       6.00864
                      -1.39848                      -1.15335                       7.77309
                      -1.31779                      -1.44165                       8.26996
                       2.37148                       4.70690                       5.36647
                       2.49747                       4.37479                       2.65271
                       2.60267                       4.04054                      -0.08624
                       2.66745                       3.65521                      -2.83520
                       2.67700                       3.25837                      -5.91534
        </DataArray>
        <DataArray type="Float32" Name="OrientationX" NumberOfComponents="3" format="ascii">
                      -0.00015                      -0.00003                       1.00000
                      -0.00019                      -0.00011                       1.00000
                      -0.00023                      -0.00018                       1.00000
                      -0.00022                      -0.00019                       1.00000
                      -0.00020                      -0.00017                       1.00000
                      -0.00003                      -0.00001                       1.00000
                      -0.00005                      -0.00003                       1.00000
                      -0.00006                      -0.00004                       1.00000
                      -0.00007                      -0.00005                       1.00000
                      -0.00009                      -0.00012                       1.00000
        </DataArray>
        <DataArray type="Float32" Name="OrientationY" NumberOfComponents="3" format="ascii">
                       0.89169                      -0.45265                       0.00012
                       0.89168                      -0.45266                       0.00012
                       0.89168                      -0.45267                       0.00012
                       0.89167                      -0.45269                       0.00011
                       0.89166                      -0.45271                       0.00010
                       0.89155                      -0.45292                       0.00002
                       0.89156                      -0.45290                       0.00003
                       0.89157                      -0.45288                       0.00004
                       0.89158                      -0.45286                       0.00004
                       0.89165                      -0.45273                       0.00002
        </DataArray>
        <DataArray type="Float32" Name="OrientationZ" NumberOfComponents="3" format="ascii">
                       0.45265                       0.89169                       0.00009
                       0.45266                       0.89168                       0.00018
                       0.45267                       0.89168                       0.00027
                       0.45269                       0.89167                       0.00027
                       0.45271                       0.89166                       0.00024
                       0.45292                       0.89155                       0.00002
                       0.45290                       0.89156                       0.00004
                       0.45288                       0.89157                       0.00006
                       0.45286                       0.89158                       0.00008
                       0.45273                       0.89165                       0.00015
        </DataArray>
      </PointData>
      <Lines>
        <DataArray type="Int32" Name="connectivity" format="ascii">
      0      1
      1      2
      2      3
      3      4
      4      5
      5      6
      6      7
      7      8
      8      9
        </DataArray>
        <DataArray type="Int32" Name="offsets" format="ascii">
      2
      4
      6
      8
     10
     12
     14
     16
     18
        </DataArray>
      </Lines>
    </Piece>
  </PolyData>
</VTKFile>
