# vtk DataFile Version 2.0

ASCII
 
DATASET POLYDATA
POINTS 40 double
  0.44122161E-002  0.73674199E-003  0.11318264E+003
  0.96282846E+001  0.18158371E+002  0.10093613E+003
  0.16421559E+002  0.30968909E+002  0.88701152E+002
  0.22110202E+002  0.41696246E+002  0.76458777E+002
  0.24953147E+002  0.47057929E+002  0.64214173E+002
  0.24952676E+002  0.47057194E+002  0.51969580E+002
  0.22109637E+002  0.41695068E+002  0.39725048E+002
  0.16420638E+002  0.30967743E+002  0.27482382E+002
  0.96279114E+001  0.18157251E+002  0.15245741E+002
  0.59586345E-004  0.11894156E-004  0.30000384E+001
  0.23942681E+001 -0.38122134E+001  0.11318292E+003
  0.13525325E+002  0.16089306E+002  0.10093652E+003
  0.19157683E+002  0.29518314E+002  0.88701662E+002
  0.24279821E+002  0.40546427E+002  0.76458949E+002
  0.26946155E+002  0.46001309E+002  0.64214226E+002
  0.26984660E+002  0.45980453E+002  0.51969392E+002
  0.24407506E+002  0.40477975E+002  0.39724683E+002
  0.19447085E+002  0.29362912E+002  0.27482450E+002
  0.13603407E+002  0.16048831E+002  0.15245773E+002
  0.39757967E+001 -0.21079522E+001  0.30014137E+001
  0.24929308E+001 -0.38556625E+001  0.11318291E+003
  0.13985513E+002  0.15843218E+002  0.10093965E+003
  0.19855125E+002  0.29161974E+002  0.88698736E+002
  0.25173554E+002  0.40093714E+002  0.76456093E+002
  0.27938409E+002  0.45500632E+002  0.64213124E+002
  0.27976800E+002  0.45479443E+002  0.51969990E+002
  0.25300328E+002  0.40023629E+002  0.39726955E+002
  0.20142532E+002  0.29002612E+002  0.27484503E+002
  0.14062434E+002  0.15800870E+002  0.15243303E+002
  0.41090528E+001 -0.21793868E+001  0.30003018E+001
  0.25940000E+001 -0.38971143E+001  0.11318291E+003
  0.14440721E+002  0.15591736E+002  0.10094036E+003
  0.20548129E+002  0.28800840E+002  0.88697816E+002
  0.26062071E+002  0.39634067E+002  0.76455271E+002
  0.28923837E+002  0.44990177E+002  0.64212725E+002
  0.28961820E+002  0.44968247E+002  0.51970180E+002
  0.26187491E+002  0.39561656E+002  0.39727634E+002
  0.20832835E+002  0.28636465E+002  0.27485089E+002
  0.14516714E+002  0.15547861E+002  0.15242543E+002
  0.42411143E+001 -0.22500000E+001  0.29999979E+001
  
POLYGONS 27 135
      4      0      1     11     10
      4      1      2     12     11
      4      2      3     13     12
      4      3      4     14     13
      4      4      5     15     14
      4      5      6     16     15
      4      6      7     17     16
      4      7      8     18     17
      4      8      9     19     18
      4     10     11     21     20
      4     11     12     22     21
      4     12     13     23     22
      4     13     14     24     23
      4     14     15     25     24
      4     15     16     26     25
      4     16     17     27     26
      4     17     18     28     27
      4     18     19     29     28
      4     20     21     31     30
      4     21     22     32     31
      4     22     23     33     32
      4     23     24     34     33
      4     24     25     35     34
      4     25     26     36     35
      4     26     27     37     36
      4     27     28     38     37
      4     28     29     39     38
  
CELL_DATA 27
SCALARS Gamma double
LOOKUP_TABLE default
  0.37831218E-001
  0.23374740E-001
  0.16846978E-001
  0.18749696E-001
  0.20843277E-001
  0.19884976E-001
  0.19074689E-001
  0.25027292E-001
  0.25240302E-001
  0.37831218E-001
  0.23374740E-001
  0.16846978E-001
  0.18749696E-001
  0.20843277E-001
  0.19884976E-001
  0.19074689E-001
  0.25027292E-001
  0.25240302E-001
  0.00000000E+000
  0.00000000E+000
  0.00000000E+000
  0.00000000E+000
  0.00000000E+000
  0.00000000E+000
  0.00000000E+000
  0.00000000E+000
  0.00000000E+000
POINT_DATA 40
VECTORS Uconv double
  0.00000000E+000  0.00000000E+000  0.00000000E+000
  0.00000000E+000  0.00000000E+000  0.00000000E+000
  0.00000000E+000  0.00000000E+000  0.00000000E+000
  0.00000000E+000  0.00000000E+000  0.00000000E+000
  0.00000000E+000  0.00000000E+000  0.00000000E+000
  0.00000000E+000  0.00000000E+000  0.00000000E+000
  0.00000000E+000  0.00000000E+000  0.00000000E+000
  0.00000000E+000  0.00000000E+000  0.00000000E+000
  0.00000000E+000  0.00000000E+000  0.00000000E+000
  0.00000000E+000  0.00000000E+000  0.00000000E+000
  0.00000000E+000  0.00000000E+000  0.00000000E+000
  0.00000000E+000  0.00000000E+000  0.00000000E+000
  0.00000000E+000  0.00000000E+000  0.00000000E+000
  0.00000000E+000  0.00000000E+000  0.00000000E+000
  0.00000000E+000  0.00000000E+000  0.00000000E+000
  0.00000000E+000  0.00000000E+000  0.00000000E+000
  0.00000000E+000  0.00000000E+000  0.00000000E+000
  0.00000000E+000  0.00000000E+000  0.00000000E+000
  0.00000000E+000  0.00000000E+000  0.00000000E+000
  0.00000000E+000  0.00000000E+000  0.00000000E+000
  0.17200000E+002  0.00000000E+000  0.00000000E+000
  0.17200000E+002  0.00000000E+000  0.00000000E+000
  0.17200000E+002  0.00000000E+000  0.00000000E+000
  0.17200000E+002  0.00000000E+000  0.00000000E+000
  0.17200000E+002  0.00000000E+000  0.00000000E+000
  0.17200000E+002  0.00000000E+000  0.00000000E+000
  0.17200000E+002  0.00000000E+000  0.00000000E+000
  0.17200000E+002  0.00000000E+000  0.00000000E+000
  0.17200000E+002  0.00000000E+000  0.00000000E+000
  0.17200000E+002  0.00000000E+000  0.00000000E+000
  0.17200000E+002  0.00000000E+000  0.00000000E+000
  0.17200000E+002  0.00000000E+000  0.00000000E+000
  0.17200000E+002  0.00000000E+000  0.00000000E+000
  0.17200000E+002  0.00000000E+000  0.00000000E+000
  0.17200000E+002  0.00000000E+000  0.00000000E+000
  0.17200000E+002  0.00000000E+000  0.00000000E+000
  0.17200000E+002  0.00000000E+000  0.00000000E+000
  0.17200000E+002  0.00000000E+000  0.00000000E+000
  0.17200000E+002  0.00000000E+000  0.00000000E+000
  0.17200000E+002  0.00000000E+000  0.00000000E+000
