<?xml version="1.0"?>
<VTKFile type="PolyData" version="0.1" byte_order="LittleEndian">
  <PolyData>
    <Piece NumberOfPoints="     10" NumberOfVerts="  0" NumberOfLines="      9"
           NumberOfStrips="  0" NumberOfPolys="      0">
      <Points>
        <DataArray type="Float32" NumberOfComponents="3" format="ascii">
                       0.04996                       0.09125                     101.06326
                       1.07041                       2.19616                     101.06234
                       2.09081                       4.30111                     101.06119
                       3.11114                       6.40609                     101.05960
                       4.13142                       8.51109                     101.05752
                       5.15192                      10.61625                     101.05559
                       6.17213                      12.72128                     101.05214
                       7.19221                      14.82635                     101.04853
                       8.21240                      16.93136                     101.04598
                       9.23257                      19.03636                     101.04443
        </DataArray>
      </Points>
      <PointData>
        <DataArray type="Float32" Name="TranslationalVelocity" NumberOfComponents="3" format="ascii">
                       0.19992                       0.14914                       0.00664
                      -3.60039                       1.99779                      -0.08285
                      -7.40271                       3.84757                      -0.18002
                     -11.20681                       5.69803                      -0.28685
                     -15.01244                       7.54903                      -0.40319
                     -18.81730                       9.40621                      -0.52705
                     -22.62555                      11.25793                      -0.65021
                     -26.43510                      13.10985                      -0.76306
                     -30.24579                      14.96233                      -0.85107
                     -34.05792                      16.81523                      -0.89492
        </DataArray>
        <DataArray type="Float32" Name="RotationalVelocity" NumberOfComponents="3" format="ascii">
                      -0.03569                       0.01161                       1.80583
                      -0.03603                       0.01586                       1.80678
                      -0.03737                       0.02077                       1.80764
                      -0.03916                       0.02587                       1.80839
                      -0.04072                       0.03086                       1.80904
                      -0.03973                       0.03891                       1.81017
                      -0.03526                       0.04108                       1.81071
                      -0.02675                       0.04138                       1.81126
                      -0.01180                       0.03885                       1.81187
                       0.00930                       0.03348                       1.81258
        </DataArray>
        <DataArray type="Float32" Name="TranslationalAcceleration" NumberOfComponents="3" format="ascii">
                      11.27290                       0.57520                      -0.24427
                      10.47474                      -0.71384                      -3.69365
                       9.89577                      -1.77603                      -7.24522
                       9.39540                      -2.87935                     -10.56230
                       8.95903                      -4.01479                     -13.52183
                      11.57413                       0.55402                     -17.98686
                      11.25555                      -0.62329                     -19.06001
                      10.94701                      -1.79737                     -18.96985
                      10.63736                      -2.89775                     -18.17338
                      10.30665                      -3.95240                     -17.43647
        </DataArray>
        <DataArray type="Float32" Name="OrientationX" NumberOfComponents="3" format="ascii">
                       0.00024                       0.00093                       1.00000
                       0.00031                       0.00111                       1.00000
                       0.00037                       0.00128                       1.00000
                       0.00042                       0.00142                       1.00000
                       0.00047                       0.00151                       1.00000
                       0.00042                       0.00138                       1.00000
                       0.00030                       0.00109                       1.00000
                       0.00002                       0.00022                       1.00000
                       0.00000                       0.00029                       1.00000
                      -0.00057                      -0.00113                       1.00000
        </DataArray>
        <DataArray type="Float32" Name="OrientationY" NumberOfComponents="3" format="ascii">
                       0.89989                      -0.43611                       0.00019
                       0.89989                      -0.43611                       0.00021
                       0.89990                      -0.43610                       0.00023
                       0.89990                      -0.43610                       0.00024
                       0.89990                      -0.43609                       0.00024
                       0.89992                      -0.43605                       0.00022
                       0.89993                      -0.43603                       0.00020
                       0.89985                      -0.43620                       0.00008
                       0.89986                      -0.43617                       0.00012
                       0.89868                      -0.43861                       0.00002
        </DataArray>
        <DataArray type="Float32" Name="OrientationZ" NumberOfComponents="3" format="ascii">
                       0.43611                       0.89989                      -0.00094
                       0.43611                       0.89989                      -0.00114
                       0.43610                       0.89990                      -0.00131
                       0.43610                       0.89990                      -0.00146
                       0.43609                       0.89990                      -0.00156
                       0.43605                       0.89992                      -0.00143
                       0.43603                       0.89993                      -0.00111
                       0.43620                       0.89985                      -0.00021
                       0.43617                       0.89986                      -0.00026
                       0.43861                       0.89868                       0.00127
        </DataArray>
      </PointData>
      <Lines>
        <DataArray type="Int32" Name="connectivity" format="ascii">
      0      1
      1      2
      2      3
      3      4
      4      5
      5      6
      6      7
      7      8
      8      9
        </DataArray>
        <DataArray type="Int32" Name="offsets" format="ascii">
      2
      4
      6
      8
     10
     12
     14
     16
     18
        </DataArray>
      </Lines>
    </Piece>
  </PolyData>
</VTKFile>
