# vtk DataFile Version 2.0

ASCII
 
DATASET POLYDATA
POINTS 120 double
  0.13891378E+000  0.27499812E-001  0.11318127E+003
  0.13346919E+002 -0.15665609E+002  0.10085373E+003
  0.22743717E+002 -0.26809540E+002  0.88717092E+002
  0.30639373E+002 -0.36097310E+002  0.76522361E+002
  0.34515662E+002 -0.40630908E+002  0.64223609E+002
  0.34505586E+002 -0.40580893E+002  0.51963337E+002
  0.30612862E+002 -0.35998955E+002  0.39690140E+002
  0.22727710E+002 -0.26743136E+002  0.27454818E+002
  0.13305748E+002 -0.15662513E+002  0.15265756E+002
  0.18902291E-003  0.47931219E-004  0.30001700E+001
 -0.13681459E+001 -0.42126269E+001  0.11317145E+003
  0.10007722E+002 -0.18549626E+002  0.10086654E+003
  0.20370490E+002 -0.28799094E+002  0.88725581E+002
  0.28754259E+002 -0.37670737E+002  0.76520561E+002
  0.32796613E+002 -0.42091523E+002  0.64222455E+002
  0.32756345E+002 -0.42073702E+002  0.51963091E+002
  0.28624093E+002 -0.37674162E+002  0.39689492E+002
  0.20112188E+002 -0.28955353E+002  0.27456166E+002
  0.98837320E+001 -0.18584808E+002  0.15265864E+002
 -0.34305726E+001 -0.29118473E+001  0.29729444E+001
 -0.12983617E+001 -0.41914060E+001  0.11317163E+003
  0.98263092E+001 -0.18722379E+002  0.10086556E+003
  0.20008149E+002 -0.29147297E+002  0.88719288E+002
  0.28224228E+002 -0.38159169E+002  0.76506511E+002
  0.32188682E+002 -0.42661294E+002  0.64219612E+002
  0.32148647E+002 -0.42653636E+002  0.51967867E+002
  0.28095064E+002 -0.38178465E+002  0.39701696E+002
  0.19748354E+002 -0.29307695E+002  0.27467423E+002
  0.97153376E+001 -0.18758397E+002  0.15267994E+002
 -0.33144206E+001 -0.28488115E+001  0.29674970E+001
 -0.12263077E+001 -0.41678797E+001  0.11317160E+003
  0.96433049E+001 -0.18889850E+002  0.10086423E+003
  0.19642166E+002 -0.29487374E+002  0.88714144E+002
  0.27688576E+002 -0.38638160E+002  0.76494365E+002
  0.31573993E+002 -0.43221002E+002  0.64217469E+002
  0.31534098E+002 -0.43222089E+002  0.51971168E+002
  0.27560301E+002 -0.38671716E+002  0.39711174E+002
  0.19380282E+002 -0.29651623E+002  0.27475936E+002
  0.95444241E+001 -0.18926056E+002  0.15268462E+002
 -0.31967124E+001 -0.27849313E+001  0.29628160E+001
 -0.11526196E+001 -0.41416604E+001  0.11317015E+003
  0.94595746E+001 -0.19050714E+002  0.10087021E+003
  0.19272543E+002 -0.29819407E+002  0.88710270E+002
  0.27147659E+002 -0.39108144E+002  0.76484566E+002
  0.30953964E+002 -0.43771985E+002  0.64216303E+002
  0.30914333E+002 -0.43780321E+002  0.51972745E+002
  0.27020366E+002 -0.39154143E+002  0.39717624E+002
  0.19008128E+002 -0.29987084E+002  0.27481637E+002
  0.93711772E+001 -0.19087654E+002  0.15268022E+002
 -0.30771173E+001 -0.27203931E+001  0.29631822E+001
 -0.10757639E+001 -0.41132262E+001  0.11316925E+003
  0.92795967E+001 -0.19202688E+002  0.10089006E+003
  0.18899097E+002 -0.30143294E+002  0.88707600E+002
  0.26601567E+002 -0.39569214E+002  0.76477346E+002
  0.30328774E+002 -0.44314110E+002  0.64216261E+002
  0.30289693E+002 -0.44328303E+002  0.51972495E+002
  0.26475493E+002 -0.39625634E+002  0.39720999E+002
  0.18631834E+002 -0.30313790E+002  0.27484756E+002
  0.91953429E+001 -0.19243357E+002  0.15266812E+002
 -0.29555240E+001 -0.26551878E+001  0.29644145E+001
 -0.99544909E+000 -0.40826430E+001  0.11316902E+003
  0.90950029E+001 -0.19351943E+002  0.10089527E+003
  0.18521529E+002 -0.30458851E+002  0.88705936E+002
  0.26049413E+002 -0.40020172E+002  0.76472105E+002
  0.29696977E+002 -0.44845166E+002  0.64216657E+002
  0.29658640E+002 -0.44863749E+002  0.51971309E+002
  0.25924611E+002 -0.40084791E+002  0.39722277E+002
  0.18251243E+002 -0.30631314E+002  0.27485662E+002
  0.90171972E+001 -0.19392950E+002  0.15264036E+002
 -0.28319441E+001 -0.25893019E+001  0.29664132E+001
 -0.91126164E+000 -0.40500610E+001  0.11316926E+003
  0.89124656E+001 -0.19493929E+002  0.10090943E+003
  0.18139496E+002 -0.30765746E+002  0.88705026E+002
  0.25491012E+002 -0.40460533E+002  0.76468716E+002
  0.29057822E+002 -0.45363582E+002  0.64217447E+002
  0.29020321E+002 -0.45385183E+002  0.51969329E+002
  0.25367391E+002 -0.40531129E+002  0.39721801E+002
  0.17866102E+002 -0.30939128E+002  0.27484954E+002
  0.88376319E+001 -0.19535823E+002  0.15258056E+002
 -0.27064776E+001 -0.25226197E+001  0.29688360E+001
 -0.82319244E+000 -0.40150245E+001  0.11316900E+003
  0.87271120E+001 -0.19631727E+002  0.10093253E+003
  0.17752528E+002 -0.31063542E+002  0.88704530E+002
  0.24925941E+002 -0.40889329E+002  0.76466799E+002
  0.28409140E+002 -0.45865700E+002  0.64218102E+002
  0.28372324E+002 -0.45889072E+002  0.51967190E+002
  0.24803186E+002 -0.40963702E+002  0.39720250E+002
  0.17476117E+002 -0.31236628E+002  0.27483277E+002
  0.86551564E+001 -0.19673078E+002  0.15252641E+002
 -0.25793770E+001 -0.24552386E+001  0.29714089E+001
 -0.73036762E+000 -0.39790716E+001  0.11316955E+003
  0.85426525E+001 -0.19762648E+002  0.10094533E+003
  0.17360189E+002 -0.31351635E+002  0.88703846E+002
  0.24353838E+002 -0.41305246E+002  0.76465809E+002
  0.27750093E+002 -0.46349395E+002  0.64218344E+002
  0.27713472E+002 -0.46373278E+002  0.51965441E+002
  0.24231341E+002 -0.41381113E+002  0.39718271E+002
  0.17079034E+002 -0.31520791E+002  0.27484949E+002
  0.84709242E+001 -0.19804142E+002  0.15247075E+002
 -0.24508525E+001 -0.23872560E+001  0.29736251E+001
 -0.63309258E+000 -0.39411578E+001  0.11316965E+003
  0.83575395E+001 -0.19887710E+002  0.10095239E+003
  0.16960178E+002 -0.31627075E+002  0.88697769E+002
  0.23775907E+002 -0.41709194E+002  0.76466020E+002
  0.27079987E+002 -0.46813436E+002  0.64218489E+002
  0.27043043E+002 -0.46836840E+002  0.51964254E+002
  0.23652793E+002 -0.41784540E+002  0.39716150E+002
  0.16678003E+002 -0.31795342E+002  0.27485870E+002
  0.82850918E+001 -0.19929111E+002  0.15241512E+002
 -0.23211925E+001 -0.23182618E+001  0.29751067E+001
 -0.53254637E+000 -0.39013849E+001  0.11316947E+003
  0.81695762E+001 -0.20004745E+002  0.10095388E+003
  0.16559298E+002 -0.31898274E+002  0.88697178E+002
  0.23193422E+002 -0.42103044E+002  0.76467454E+002
  0.26405626E+002 -0.47266891E+002  0.64218891E+002
  0.26368317E+002 -0.47289665E+002  0.51963439E+002
  0.23069271E+002 -0.42176765E+002  0.39713938E+002
  0.16274245E+002 -0.32062099E+002  0.27485662E+002
  0.80975329E+001 -0.20047543E+002  0.15239488E+002
 -0.21902019E+001 -0.22485688E+001  0.29758844E+001
  
POLYGONS 99 495
      4      0      1     11     10
      4      1      2     12     11
      4      2      3     13     12
      4      3      4     14     13
      4      4      5     15     14
      4      5      6     16     15
      4      6      7     17     16
      4      7      8     18     17
      4      8      9     19     18
      4     10     11     21     20
      4     11     12     22     21
      4     12     13     23     22
      4     13     14     24     23
      4     14     15     25     24
      4     15     16     26     25
      4     16     17     27     26
      4     17     18     28     27
      4     18     19     29     28
      4     20     21     31     30
      4     21     22     32     31
      4     22     23     33     32
      4     23     24     34     33
      4     24     25     35     34
      4     25     26     36     35
      4     26     27     37     36
      4     27     28     38     37
      4     28     29     39     38
      4     30     31     41     40
      4     31     32     42     41
      4     32     33     43     42
      4     33     34     44     43
      4     34     35     45     44
      4     35     36     46     45
      4     36     37     47     46
      4     37     38     48     47
      4     38     39     49     48
      4     40     41     51     50
      4     41     42     52     51
      4     42     43     53     52
      4     43     44     54     53
      4     44     45     55     54
      4     45     46     56     55
      4     46     47     57     56
      4     47     48     58     57
      4     48     49     59     58
      4     50     51     61     60
      4     51     52     62     61
      4     52     53     63     62
      4     53     54     64     63
      4     54     55     65     64
      4     55     56     66     65
      4     56     57     67     66
      4     57     58     68     67
      4     58     59     69     68
      4     60     61     71     70
      4     61     62     72     71
      4     62     63     73     72
      4     63     64     74     73
      4     64     65     75     74
      4     65     66     76     75
      4     66     67     77     76
      4     67     68     78     77
      4     68     69     79     78
      4     70     71     81     80
      4     71     72     82     81
      4     72     73     83     82
      4     73     74     84     83
      4     74     75     85     84
      4     75     76     86     85
      4     76     77     87     86
      4     77     78     88     87
      4     78     79     89     88
      4     80     81     91     90
      4     81     82     92     91
      4     82     83     93     92
      4     83     84     94     93
      4     84     85     95     94
      4     85     86     96     95
      4     86     87     97     96
      4     87     88     98     97
      4     88     89     99     98
      4     90     91    101    100
      4     91     92    102    101
      4     92     93    103    102
      4     93     94    104    103
      4     94     95    105    104
      4     95     96    106    105
      4     96     97    107    106
      4     97     98    108    107
      4     98     99    109    108
      4    100    101    111    110
      4    101    102    112    111
      4    102    103    113    112
      4    103    104    114    113
      4    104    105    115    114
      4    105    106    116    115
      4    106    107    117    116
      4    107    108    118    117
      4    108    109    119    118
  
CELL_DATA 99
SCALARS Gamma double
LOOKUP_TABLE default
  0.50133611E+002
  0.95802285E+002
  0.68396894E+002
  0.82775051E+002
  0.98966935E+002
  0.95623256E+002
  0.85937736E+002
  0.10113575E+003
  0.28760945E+002
  0.50133611E+002
  0.95802285E+002
  0.68396894E+002
  0.82775051E+002
  0.98966935E+002
  0.95623256E+002
  0.85937736E+002
  0.10113575E+003
  0.28760945E+002
  0.47126770E+002
  0.91081558E+002
  0.64599049E+002
  0.78726788E+002
  0.94621029E+002
  0.90646486E+002
  0.81452395E+002
  0.96570826E+002
  0.27272932E+002
  0.40307935E+002
  0.78883779E+002
  0.55757413E+002
  0.68182051E+002
  0.82010533E+002
  0.78109832E+002
  0.70331007E+002
  0.84043411E+002
  0.23558086E+002
  0.31180205E+002
  0.61861691E+002
  0.43729599E+002
  0.53402917E+002
  0.64079181E+002
  0.60762635E+002
  0.54966018E+002
  0.66251422E+002
  0.18425397E+002
  0.21751674E+002
  0.43748467E+002
  0.31092012E+002
  0.37702419E+002
  0.44954690E+002
  0.42522550E+002
  0.38757463E+002
  0.47116865E+002
  0.12995209E+002
  0.12940546E+002
  0.26383846E+002
  0.18957153E+002
  0.22682258E+002
  0.26751777E+002
  0.25299876E+002
  0.23305827E+002
  0.28582989E+002
  0.78166061E+001
  0.55517334E+001
  0.11524444E+002
  0.84253451E+001
  0.98669053E+001
  0.11443381E+002
  0.10857547E+002
  0.10153410E+002
  0.12534465E+002
  0.33987728E+001
  0.10796506E+001
  0.22864924E+001
  0.17123151E+001
  0.19508177E+001
  0.22107269E+001
  0.21117534E+001
  0.20087758E+001
  0.24850141E+001
  0.67029763E+000
  0.12168383E-001
  0.26361473E-001
  0.20268502E-001
  0.22122473E-001
  0.24323726E-001
  0.23479501E-001
  0.22930704E-001
  0.28397287E-001
  0.76470951E-002
  0.00000000E+000
  0.00000000E+000
  0.00000000E+000
  0.00000000E+000
  0.00000000E+000
  0.00000000E+000
  0.00000000E+000
  0.00000000E+000
  0.00000000E+000
POINT_DATA 120
VECTORS Uconv double
  0.00000000E+000  0.00000000E+000  0.00000000E+000
  0.00000000E+000  0.00000000E+000  0.00000000E+000
  0.00000000E+000  0.00000000E+000  0.00000000E+000
  0.00000000E+000  0.00000000E+000  0.00000000E+000
  0.00000000E+000  0.00000000E+000  0.00000000E+000
  0.00000000E+000  0.00000000E+000  0.00000000E+000
  0.00000000E+000  0.00000000E+000  0.00000000E+000
  0.00000000E+000  0.00000000E+000  0.00000000E+000
  0.00000000E+000  0.00000000E+000  0.00000000E+000
  0.00000000E+000  0.00000000E+000  0.00000000E+000
  0.00000000E+000  0.00000000E+000  0.00000000E+000
  0.00000000E+000  0.00000000E+000  0.00000000E+000
  0.00000000E+000  0.00000000E+000  0.00000000E+000
  0.00000000E+000  0.00000000E+000  0.00000000E+000
  0.00000000E+000  0.00000000E+000  0.00000000E+000
  0.00000000E+000  0.00000000E+000  0.00000000E+000
  0.00000000E+000  0.00000000E+000  0.00000000E+000
  0.00000000E+000  0.00000000E+000  0.00000000E+000
  0.00000000E+000  0.00000000E+000  0.00000000E+000
  0.00000000E+000  0.00000000E+000  0.00000000E+000
  0.17223680E+002 -0.18009323E+000 -0.23033937E+000
  0.16992550E+002  0.38672102E-001 -0.13678533E+001
  0.16895049E+002  0.34395763E+000 -0.48530081E+000
  0.16672019E+002  0.62978717E+000 -0.47500851E+000
  0.16181671E+002  0.11685200E+001 -0.27546981E+000
  0.16103226E+002  0.12466723E+001  0.33483301E+000
  0.16537510E+002  0.77164528E+000  0.61054635E+000
  0.16816506E+002  0.43987095E+000  0.59157071E+000
  0.17026104E+002  0.15631883E+000  0.35124892E+000
  0.16795373E+002  0.91268321E-001 -0.95265218E+000
  0.17222066E+002 -0.17780420E+000 -0.23108224E+000
  0.17052030E+002  0.44960116E-001 -0.83333753E+000
  0.16944058E+002  0.28826579E+000 -0.40218929E+000
  0.16753841E+002  0.53290248E+000 -0.38906054E+000
  0.16301131E+002  0.10368146E+001 -0.23057318E+000
  0.16234956E+002  0.11045328E+001  0.28174967E+000
  0.16639709E+002  0.65648858E+000  0.50513196E+000
  0.16874574E+002  0.37442610E+000  0.49577825E+000
  0.17049745E+002  0.14472192E+000  0.25168227E+000
  0.16799830E+002  0.89369056E-001 -0.94647936E+000
  0.17220250E+002 -0.17558105E+000 -0.23197607E+000
  0.17068797E+002  0.26344099E-001 -0.69995699E+000
  0.16995879E+002  0.22758965E+000 -0.31408508E+000
  0.16855315E+002  0.40950630E+000 -0.28548372E+000
  0.16479346E+002  0.83276981E+000 -0.17023258E+000
  0.16429210E+002  0.88576199E+000  0.21068950E+000
  0.16766720E+002  0.50953554E+000  0.37653730E+000
  0.16936161E+002  0.30314229E+000  0.39299664E+000
  0.17067066E+002  0.12658242E+000  0.21942777E+000
  0.16805832E+002  0.82598162E-001 -0.94183223E+000
  0.17218289E+002 -0.17319826E+000 -0.23288011E+000
  0.17088192E+002  0.13178271E-001 -0.57113305E+000
  0.17049103E+002  0.16333321E+000 -0.22218414E+000
  0.16969749E+002  0.26687498E+000 -0.16773984E+000
  0.16700116E+002  0.57260544E+000 -0.99764011E-001
  0.16667796E+002  0.60843637E+000  0.12796428E+000
  0.16907597E+002  0.34068690E+000  0.23267794E+000
  0.16999423E+002  0.22787217E+000  0.28597057E+000
  0.17084096E+002  0.10795214E+000  0.18704260E+000
  0.16811803E+002  0.75725766E-001 -0.93685889E+000
  0.17216185E+002 -0.17062682E+000 -0.23375436E+000
  0.17104973E+002 -0.61116602E-002 -0.44410822E+000
  0.17102169E+002  0.97123143E-001 -0.12888438E+000
  0.17087573E+002  0.11545416E+000 -0.45326801E-001
  0.16937055E+002  0.28377061E+000 -0.26272670E-001
  0.16921893E+002  0.30211805E+000  0.41946198E-001
  0.17051357E+002  0.16213549E+000  0.83830953E-001
  0.17062645E+002  0.15029744E+000  0.17722693E+000
  0.17100733E+002  0.89125075E-001  0.15479681E+000
  0.16817731E+002  0.68775313E-001 -0.93145382E+000
  0.17213935E+002 -0.16786134E+000 -0.23454827E+000
  0.17123316E+002 -0.22048537E-001 -0.32465345E+000
  0.17153510E+002  0.30651040E-001 -0.36625961E-001
  0.17199264E+002 -0.33081350E-001  0.72945585E-001
  0.17161791E+002 -0.94905869E-003  0.47886789E-001
  0.17161169E+002  0.16051597E-002 -0.40259991E-001
  0.17186420E+002 -0.12359320E-001 -0.59371770E-001
  0.17123256E+002  0.73199056E-001  0.70673610E-001
  0.17116927E+002  0.70562348E-001  0.12303296E+000
  0.16823654E+002  0.61798367E-001 -0.92549828E+000
  0.17208517E+002 -0.16242081E+000 -0.23046567E+000
  0.17143481E+002 -0.35357294E-001 -0.21130855E+000
  0.17201670E+002 -0.34461474E-001  0.52283293E-001
  0.17296510E+002 -0.16805930E+000  0.17916740E+000
  0.17348758E+002 -0.25128902E+000  0.10587766E+000
  0.17359224E+002 -0.26203453E+000 -0.10861836E+000
  0.17303026E+002 -0.17056087E+000 -0.18764136E+000
  0.17179726E+002 -0.18336915E-002 -0.31360511E-001
  0.17132211E+002  0.51988434E-001  0.91154705E-001
  0.16829595E+002  0.54846708E-001 -0.91883980E+000
  0.17206102E+002 -0.15941411E+000 -0.23109613E+000
  0.17154720E+002 -0.56205126E-001  0.36627771E-001
  0.17244663E+002 -0.95763603E-001  0.12335817E+000
  0.17373589E+002 -0.28147748E+000  0.26752433E+000
  0.17483834E+002 -0.44684087E+000  0.15016373E+000
  0.17501499E+002 -0.46764977E+000 -0.16061926E+000
  0.17394920E+002 -0.30375481E+000 -0.29692716E+000
  0.17039104E+002  0.16147000E+000  0.23444220E+000
  0.17146574E+002  0.33532864E-001  0.60512494E-001
  0.16847444E+002  0.26038282E-001 -0.91807696E+000
  0.17202705E+002 -0.15416438E+000 -0.23993002E+000
  0.17175435E+002 -0.74145817E-001  0.28543264E-001
  0.17105632E+002  0.65219913E-001 -0.13717138E+000
  0.17428661E+002 -0.36854251E+000  0.33493023E+000
  0.17361831E+002 -0.32913508E+000  0.17954689E+000
  0.17379770E+002 -0.35260946E+000 -0.19388553E+000
  0.17460037E+002 -0.40629431E+000 -0.37825470E+000
  0.17090745E+002  0.87912417E-001  0.14452663E+000
  0.17176445E+002 -0.27091355E-003 -0.67685433E-001
  0.16849840E+002  0.26484726E-001 -0.90762561E+000
  0.17197376E+002 -0.14441423E+000 -0.27358423E+000
  0.16992412E+002  0.12237477E+000  0.10877232E+000
  0.17146944E+002  0.52070351E-002 -0.66795254E-001
  0.17463350E+002 -0.42907123E+000  0.38774628E+000
  0.17438912E+002 -0.44794531E+000  0.19404369E+000
  0.17460326E+002 -0.47732049E+000 -0.21147864E+000
  0.17500678E+002 -0.47766895E+000 -0.43658024E+000
  0.17137014E+002  0.20191300E-001  0.52683545E-001
  0.17182299E+002 -0.12602514E-001 -0.85617984E-001
  0.16853782E+002  0.24596681E-001 -0.89646584E+000
