# vtk DataFile Version 2.0
BldPointCP.BldC
ASCII
 
DATASET POLYDATA
POINTS 9 double
  0.60868566E+001 -0.97132395E+001  0.10635326E+003
  0.14916312E+002 -0.23812047E+002  0.94569168E+002
  0.21962871E+002 -0.35060298E+002  0.82329367E+002
  0.26734214E+002 -0.42675826E+002  0.70075345E+002
  0.28276565E+002 -0.45137696E+002  0.58092113E+002
  0.26734064E+002 -0.42675265E+002  0.46109157E+002
  0.21962649E+002 -0.35058656E+002  0.33855239E+002
  0.14916046E+002 -0.23810518E+002  0.21614310E+002
  0.60847308E+001 -0.97131472E+001  0.98293134E+001
  
POINT_DATA 9
SCALARS Gamma_LL double
LOOKUP_TABLE default
  0.12168383E-001
  0.26361473E-001
  0.20268502E-001
  0.22122473E-001
  0.24323726E-001
  0.23479501E-001
  0.22930704E-001
  0.28397287E-001
  0.76470951E-002
VECTORS Vind_CP double
 -0.33708605E-004 -0.94849925E-005 -0.40751929E-004
 -0.19255209E-004  0.29876684E-004 -0.48922968E-004
 -0.20700094E-004  0.25882212E-004 -0.25421187E-004
 -0.37657964E-004  0.49515477E-004 -0.21403904E-004
 -0.54083597E-004  0.73842725E-004  0.14041696E-006
 -0.41919579E-004  0.55815467E-004  0.24861939E-004
 -0.27018649E-004  0.35928983E-004  0.34265116E-004
 -0.29396535E-004  0.41581825E-004  0.58547979E-004
 -0.26468126E-004 -0.26547966E-004  0.12942569E-004
VECTORS Vtot_CP double
 -0.59484945E+000 -0.10956473E+002  0.22492649E+000
 -0.26020464E+002 -0.26424223E+002  0.12696429E-001
 -0.46559024E+002 -0.38722361E+002 -0.35046230E+000
 -0.60310084E+002 -0.47339274E+002 -0.26041968E+000
 -0.64702200E+002 -0.50218262E+002 -0.68797186E-001
 -0.60270189E+002 -0.47449077E+002  0.10729405E+000
 -0.46502622E+002 -0.38931096E+002  0.18630430E+000
 -0.25961058E+002 -0.26591847E+002 -0.68465332E-001
 -0.32426517E+000 -0.10956319E+002 -0.18370131E+000
VECTORS Vstr_CP double
  0.17794816E+002  0.10956463E+002 -0.22496724E+000
  0.43220445E+002  0.26424252E+002 -0.12745352E-001
  0.63759003E+002  0.38722387E+002  0.35043688E+000
  0.77510046E+002  0.47339324E+002  0.26039828E+000
  0.81902145E+002  0.50218336E+002  0.68797326E-001
  0.77470147E+002  0.47449133E+002 -0.10726919E+000
  0.63702595E+002  0.38931132E+002 -0.18627004E+000
  0.43161029E+002  0.26591888E+002  0.68523880E-001
  0.17524239E+002  0.10956293E+002  0.18371425E+000
VECTORS Vwnd_CP double
  0.17200000E+002  0.00000000E+000  0.00000000E+000
  0.17200000E+002  0.00000000E+000  0.00000000E+000
  0.17200000E+002  0.00000000E+000  0.00000000E+000
  0.17200000E+002  0.00000000E+000  0.00000000E+000
  0.17200000E+002  0.00000000E+000  0.00000000E+000
  0.17200000E+002  0.00000000E+000  0.00000000E+000
  0.17200000E+002  0.00000000E+000  0.00000000E+000
  0.17200000E+002  0.00000000E+000  0.00000000E+000
  0.17200000E+002  0.00000000E+000  0.00000000E+000
VECTORS Tangent double
 -0.67921416E+000 -0.73394013E+000  0.98174406E-004
 -0.84739501E+000 -0.53096297E+000  0.17381713E-003
 -0.84743605E+000 -0.53089747E+000  0.12629018E-003
 -0.84738326E+000 -0.53098174E+000  0.52084851E-004
 -0.84727759E+000 -0.53115034E+000 -0.36843036E-004
 -0.84737513E+000 -0.53099470E+000 -0.11497172E-003
 -0.84744381E+000 -0.53088509E+000 -0.53714422E-004
 -0.84741070E+000 -0.53093794E+000 -0.60714300E-006
 -0.84742025E+000 -0.53092268E+000 -0.15032760E-003
VECTORS Normal double
  0.38562475E+000 -0.35675696E+000  0.85089249E+000
  0.34255047E+000 -0.54644624E+000  0.76423536E+000
  0.37701635E+000 -0.60163840E+000  0.70419451E+000
  0.47576401E+000 -0.75921882E+000  0.44411191E+000
  0.53115035E+000 -0.84727759E+000 -0.81708324E-005
  0.47578018E+000 -0.75916619E+000 -0.44418454E+000
  0.37695580E+000 -0.60165757E+000 -0.70421055E+000
  0.34246967E+000 -0.54660249E+000 -0.76415983E+000
  0.27187005E+000 -0.43369600E+000 -0.85906604E+000
VECTORS Orth double
  0.62446912E+000 -0.57797608E+000 -0.52533986E+000
  0.40568570E+000 -0.64766877E+000 -0.64493742E+000
  0.37377910E+000 -0.59680742E+000 -0.71000710E+000
  0.23577577E+000 -0.37635777E+000 -0.89597132E+000
  0.26876338E-004  0.26492155E-004 -0.10000000E+001
 -0.23577236E+000  0.37644564E+000 -0.89593531E+000
 -0.37382257E+000  0.59679912E+000 -0.70999119E+000
 -0.40572112E+000  0.64755743E+000 -0.64502694E+000
 -0.45603245E+000  0.72803083E+000 -0.51186475E+000
