# vtk DataFile Version 2.0

ASCII
 
DATASET POLYDATA
POINTS 160 double
  0.25262052E+000  0.54003168E-001  0.11318095E+003
  0.55854158E+001  0.19824325E+002  0.10079175E+003
  0.94263604E+001  0.33931209E+002  0.88717318E+002
  0.12669784E+002  0.45704504E+002  0.76553546E+002
  0.14238811E+002  0.51375582E+002  0.64215045E+002
  0.14235785E+002  0.51288660E+002  0.51951151E+002
  0.12655840E+002  0.45543911E+002  0.39652166E+002
  0.94099920E+001  0.33849787E+002  0.27404753E+002
  0.55072074E+001  0.19800556E+002  0.15263361E+002
  0.17038800E-003  0.38027470E-004  0.30001886E+001
  0.33968350E+001 -0.31652471E+001  0.11319946E+003
  0.98119921E+001  0.18557870E+002  0.10078188E+003
  0.12411662E+002  0.33107509E+002  0.88707784E+002
  0.15043573E+002  0.45076454E+002  0.76550517E+002
  0.16411431E+002  0.50768749E+002  0.64214784E+002
  0.16446712E+002  0.50656104E+002  0.51950706E+002
  0.15164885E+002  0.44861117E+002  0.39651258E+002
  0.12713010E+002  0.32941530E+002  0.27404809E+002
  0.98394324E+001  0.18583253E+002  0.15263897E+002
  0.43349866E+001 -0.12073250E+001  0.30407276E+001
  0.34806532E+001 -0.32263640E+001  0.11318874E+003
  0.10303482E+002  0.18378756E+002  0.10077710E+003
  0.13172782E+002  0.32866127E+002  0.88708796E+002
  0.16024934E+002  0.44772691E+002  0.76543993E+002
  0.17500236E+002  0.50450797E+002  0.64214694E+002
  0.17532160E+002  0.50347817E+002  0.51954220E+002
  0.16140940E+002  0.44571306E+002  0.39659750E+002
  0.13473252E+002  0.32698146E+002  0.27415255E+002
  0.10342503E+002  0.18398127E+002  0.15269329E+002
  0.44831627E+001 -0.12845739E+001  0.30441296E+001
  0.35646890E+001 -0.32862485E+001  0.11318093E+003
  0.10793931E+002  0.18196063E+002  0.10077576E+003
  0.13929408E+002  0.32612548E+002  0.88709268E+002
  0.16999449E+002  0.44453148E+002  0.76536208E+002
  0.18582031E+002  0.50115240E+002  0.64214524E+002
  0.18611434E+002  0.50022216E+002  0.51957627E+002
  0.17111444E+002  0.44266489E+002  0.39669074E+002
  0.14228659E+002  0.32443151E+002  0.27426747E+002
  0.10842749E+002  0.18208634E+002  0.15273607E+002
  0.46298026E+001 -0.13617642E+001  0.30472696E+001
  0.36496099E+001 -0.33439020E+001  0.11317492E+003
  0.11282874E+002  0.18008251E+002  0.10077565E+003
  0.14680852E+002  0.32345507E+002  0.88706355E+002
  0.17966212E+002  0.44116812E+002  0.76526491E+002
  0.19656126E+002  0.49761554E+002  0.64213467E+002
  0.19683594E+002  0.49677793E+002  0.51962033E+002
  0.18075388E+002  0.43944861E+002  0.39679896E+002
  0.14978854E+002  0.32175907E+002  0.27440173E+002
  0.11339795E+002  0.18013844E+002  0.15277336E+002
  0.47753085E+001 -0.14381521E+001  0.30499074E+001
  0.37341097E+001 -0.34015776E+001  0.11316982E+003
  0.11770301E+002  0.17815677E+002  0.10077967E+003
  0.15428200E+002  0.32069214E+002  0.88705309E+002
  0.18925480E+002  0.43765533E+002  0.76515804E+002
  0.20723608E+002  0.49393657E+002  0.64212141E+002
  0.20750041E+002  0.49319261E+002  0.51966379E+002
  0.19033329E+002  0.43608680E+002  0.39690940E+002
  0.15724706E+002  0.31899691E+002  0.27451533E+002
  0.11833671E+002  0.17814004E+002  0.15280601E+002
  0.49197876E+001 -0.15135090E+001  0.30521264E+001
  0.38195790E+001 -0.34571495E+001  0.11316392E+003
  0.12256087E+002  0.17618022E+002  0.10078641E+003
  0.16170625E+002  0.31782069E+002  0.88703832E+002
  0.19877590E+002  0.43401163E+002  0.76505270E+002
  0.21783577E+002  0.49010407E+002  0.64210831E+002
  0.21809782E+002  0.48945012E+002  0.51970340E+002
  0.19985723E+002  0.43259716E+002  0.39700614E+002
  0.16465816E+002  0.31613726E+002  0.27461849E+002
  0.12324385E+002  0.17609358E+002  0.15283008E+002
  0.50625218E+001 -0.15892596E+001  0.30538587E+001
  0.39061715E+001 -0.35109209E+001  0.11316107E+003
  0.12739973E+002  0.17415571E+002  0.10080036E+003
  0.16908392E+002  0.31485345E+002  0.88703065E+002
  0.20822474E+002  0.43024443E+002  0.76494956E+002
  0.22837439E+002  0.48616315E+002  0.64209898E+002
  0.22864345E+002  0.48559861E+002  0.51973320E+002
  0.20932257E+002  0.42898399E+002  0.39709086E+002
  0.17202242E+002  0.31318668E+002  0.27470215E+002
  0.12811978E+002  0.17400152E+002  0.15283756E+002
  0.52042599E+001 -0.16641655E+001  0.30562262E+001
  0.39940165E+001 -0.35628125E+001  0.11315702E+003
  0.13221806E+002  0.17208049E+002  0.10081905E+003
  0.17640936E+002  0.31178442E+002  0.88701946E+002
  0.21760215E+002  0.42636191E+002  0.76484906E+002
  0.23885885E+002  0.48213678E+002  0.64209892E+002
  0.23913792E+002  0.48164353E+002  0.51975470E+002
  0.21872312E+002  0.42523331E+002  0.39717272E+002
  0.17933467E+002  0.31013699E+002  0.27477809E+002
  0.13296461E+002  0.17186443E+002  0.15282766E+002
  0.53452194E+001 -0.17380423E+001  0.30533723E+001
  0.40831633E+001 -0.36132248E+001  0.11315410E+003
  0.13701284E+002  0.16995395E+002  0.10084297E+003
  0.18368444E+002  0.30862761E+002  0.88701439E+002
  0.22690928E+002  0.42236986E+002  0.76476117E+002
  0.24927466E+002  0.47798494E+002  0.64209671E+002
  0.24957252E+002  0.47756733E+002  0.51976707E+002
  0.22806600E+002  0.42137662E+002  0.39722867E+002
  0.18659699E+002  0.30699973E+002  0.27483128E+002
  0.13777696E+002  0.16968230E+002  0.15279369E+002
  0.54852432E+001 -0.18111531E+001  0.30502063E+001
  0.41750875E+001 -0.36594895E+001  0.11314546E+003
  0.14178171E+002  0.16777463E+002  0.10086999E+003
  0.19090682E+002  0.30538655E+002  0.88701652E+002
  0.23615168E+002  0.41829123E+002  0.76469726E+002
  0.25964395E+002  0.47377925E+002  0.64211857E+002
  0.25996946E+002  0.47344211E+002  0.51974247E+002
  0.23735294E+002  0.41742676E+002  0.39724129E+002
  0.19381339E+002  0.30379049E+002  0.27484733E+002
  0.14255495E+002  0.16745333E+002  0.15273756E+002
  0.56243177E+001 -0.18834975E+001  0.30467538E+001
  0.42678716E+001 -0.37053492E+001  0.11313680E+003
  0.14651866E+002  0.16553184E+002  0.10089594E+003
  0.19807692E+002  0.30207242E+002  0.88703364E+002
  0.24533516E+002  0.41414021E+002  0.76466960E+002
  0.26993383E+002  0.46943340E+002  0.64214719E+002
  0.27028755E+002  0.46916411E+002  0.51970756E+002
  0.24657567E+002  0.41337355E+002  0.39722594E+002
  0.20097500E+002  0.30049320E+002  0.27484354E+002
  0.14729602E+002  0.16517428E+002  0.15266453E+002
  0.57615840E+001 -0.19566100E+001  0.30430801E+001
  0.43613801E+001 -0.37522893E+001  0.11313556E+003
  0.15121877E+002  0.16322055E+002  0.10091877E+003
  0.20518778E+002  0.29867913E+002  0.88704697E+002
  0.25444401E+002  0.40987985E+002  0.76465465E+002
  0.28012268E+002  0.46490160E+002  0.64216761E+002
  0.28050046E+002  0.46468314E+002  0.51967586E+002
  0.25571426E+002  0.40917823E+002  0.39720329E+002
  0.20807749E+002  0.29710559E+002  0.27482615E+002
  0.15199672E+002  0.16284113E+002  0.15258069E+002
  0.58980525E+001 -0.20283866E+001  0.30396396E+001
  0.44586093E+001 -0.37941028E+001  0.11313016E+003
  0.15587968E+002  0.16084720E+002  0.10093569E+003
  0.21223143E+002  0.29519944E+002  0.88704308E+002
  0.26347529E+002  0.40550219E+002  0.76464844E+002
  0.29019364E+002  0.46015468E+002  0.64217874E+002
  0.29058484E+002  0.45996217E+002  0.51965232E+002
  0.26475820E+002  0.40482711E+002  0.39718279E+002
  0.21510693E+002  0.29360543E+002  0.27482824E+002
  0.15663927E+002  0.16042188E+002  0.15252846E+002
  0.60328622E+001 -0.21002064E+001  0.30366016E+001
  0.45574794E+001 -0.38367412E+001  0.11312880E+003
  0.16049306E+002  0.15841347E+002  0.10094954E+003
  0.21922163E+002  0.29166493E+002  0.88704964E+002
  0.27243201E+002  0.40101063E+002  0.76464632E+002
  0.30014806E+002  0.45520565E+002  0.64217861E+002
  0.30053523E+002  0.45500150E+002  0.51964347E+002
  0.27371101E+002  0.40033165E+002  0.39716843E+002
  0.22207906E+002  0.29003541E+002  0.27481026E+002
  0.16124343E+002  0.15796905E+002  0.15245304E+002
  0.61662902E+001 -0.21714952E+001  0.30344008E+001
  0.46588773E+001 -0.38769081E+001  0.11312620E+003
  0.16506014E+002  0.15593055E+002  0.10095620E+003
  0.22616585E+002  0.28807936E+002  0.88707167E+002
  0.28132905E+002  0.39643485E+002  0.76465360E+002
  0.31000301E+002  0.45009341E+002  0.64217426E+002
  0.31039137E+002  0.44989237E+002  0.51964556E+002
  0.28259735E+002  0.39573899E+002  0.39715391E+002
  0.22900054E+002  0.28640875E+002  0.27477334E+002
  0.16579915E+002  0.15546341E+002  0.15240084E+002
  0.62986503E+001 -0.22417176E+001  0.30331304E+001
  
POLYGONS 135 675
      4      0      1     11     10
      4      1      2     12     11
      4      2      3     13     12
      4      3      4     14     13
      4      4      5     15     14
      4      5      6     16     15
      4      6      7     17     16
      4      7      8     18     17
      4      8      9     19     18
      4     10     11     21     20
      4     11     12     22     21
      4     12     13     23     22
      4     13     14     24     23
      4     14     15     25     24
      4     15     16     26     25
      4     16     17     27     26
      4     17     18     28     27
      4     18     19     29     28
      4     20     21     31     30
      4     21     22     32     31
      4     22     23     33     32
      4     23     24     34     33
      4     24     25     35     34
      4     25     26     36     35
      4     26     27     37     36
      4     27     28     38     37
      4     28     29     39     38
      4     30     31     41     40
      4     31     32     42     41
      4     32     33     43     42
      4     33     34     44     43
      4     34     35     45     44
      4     35     36     46     45
      4     36     37     47     46
      4     37     38     48     47
      4     38     39     49     48
      4     40     41     51     50
      4     41     42     52     51
      4     42     43     53     52
      4     43     44     54     53
      4     44     45     55     54
      4     45     46     56     55
      4     46     47     57     56
      4     47     48     58     57
      4     48     49     59     58
      4     50     51     61     60
      4     51     52     62     61
      4     52     53     63     62
      4     53     54     64     63
      4     54     55     65     64
      4     55     56     66     65
      4     56     57     67     66
      4     57     58     68     67
      4     58     59     69     68
      4     60     61     71     70
      4     61     62     72     71
      4     62     63     73     72
      4     63     64     74     73
      4     64     65     75     74
      4     65     66     76     75
      4     66     67     77     76
      4     67     68     78     77
      4     68     69     79     78
      4     70     71     81     80
      4     71     72     82     81
      4     72     73     83     82
      4     73     74     84     83
      4     74     75     85     84
      4     75     76     86     85
      4     76     77     87     86
      4     77     78     88     87
      4     78     79     89     88
      4     80     81     91     90
      4     81     82     92     91
      4     82     83     93     92
      4     83     84     94     93
      4     84     85     95     94
      4     85     86     96     95
      4     86     87     97     96
      4     87     88     98     97
      4     88     89     99     98
      4     90     91    101    100
      4     91     92    102    101
      4     92     93    103    102
      4     93     94    104    103
      4     94     95    105    104
      4     95     96    106    105
      4     96     97    107    106
      4     97     98    108    107
      4     98     99    109    108
      4    100    101    111    110
      4    101    102    112    111
      4    102    103    113    112
      4    103    104    114    113
      4    104    105    115    114
      4    105    106    116    115
      4    106    107    117    116
      4    107    108    118    117
      4    108    109    119    118
      4    110    111    121    120
      4    111    112    122    121
      4    112    113    123    122
      4    113    114    124    123
      4    114    115    125    124
      4    115    116    126    125
      4    116    117    127    126
      4    117    118    128    127
      4    118    119    129    128
      4    120    121    131    130
      4    121    122    132    131
      4    122    123    133    132
      4    123    124    134    133
      4    124    125    135    134
      4    125    126    136    135
      4    126    127    137    136
      4    127    128    138    137
      4    128    129    139    138
      4    130    131    141    140
      4    131    132    142    141
      4    132    133    143    142
      4    133    134    144    143
      4    134    135    145    144
      4    135    136    146    145
      4    136    137    147    146
      4    137    138    148    147
      4    138    139    149    148
      4    140    141    151    150
      4    141    142    152    151
      4    142    143    153    152
      4    143    144    154    153
      4    144    145    155    154
      4    145    146    156    155
      4    146    147    157    156
      4    147    148    158    157
      4    148    149    159    158
  
CELL_DATA 135
SCALARS Gamma double
LOOKUP_TABLE default
  0.11112772E+003
  0.51398107E+002
  0.19179802E+002
  0.23452183E+002
  0.44919203E+002
  0.38693043E+002
  0.27024695E+002
  0.38104920E+002
  0.45401503E+002
  0.11112772E+003
  0.51398107E+002
  0.19179802E+002
  0.23452183E+002
  0.44919203E+002
  0.38693043E+002
  0.27024695E+002
  0.38104920E+002
  0.45401503E+002
  0.11244064E+003
  0.52404588E+002
  0.19556516E+002
  0.25948359E+002
  0.48011656E+002
  0.41314340E+002
  0.28826573E+002
  0.40632908E+002
  0.48082909E+002
  0.11372478E+003
  0.53426427E+002
  0.20225088E+002
  0.28672640E+002
  0.51117529E+002
  0.43943908E+002
  0.30757073E+002
  0.43294595E+002
  0.50780150E+002
  0.11487674E+003
  0.54509432E+002
  0.21238922E+002
  0.31578756E+002
  0.54134381E+002
  0.46517198E+002
  0.32831361E+002
  0.46126820E+002
  0.53508508E+002
  0.11550391E+003
  0.55599070E+002
  0.22622397E+002
  0.34596947E+002
  0.56909105E+002
  0.48939084E+002
  0.35019932E+002
  0.49063237E+002
  0.56174020E+002
  0.11260791E+003
  0.55118972E+002
  0.23710119E+002
  0.36574781E+002
  0.57627379E+002
  0.49673087E+002
  0.36249274E+002
  0.50634756E+002
  0.57102687E+002
  0.10000560E+003
  0.49889924E+002
  0.22951288E+002
  0.35053800E+002
  0.52787068E+002
  0.45703218E+002
  0.34215870E+002
  0.47591404E+002
  0.52785673E+002
  0.80240252E+002
  0.41003710E+002
  0.20324579E+002
  0.30230284E+002
  0.43423174E+002
  0.37859980E+002
  0.29248693E+002
  0.40490246E+002
  0.44129981E+002
  0.57999852E+002
  0.30493256E+002
  0.16374694E+002
  0.23384678E+002
  0.31974723E+002
  0.28167340E+002
  0.22576558E+002
  0.31041105E+002
  0.33225043E+002
  0.35761694E+002
  0.19421458E+002
  0.11297451E+002
  0.15331624E+002
  0.19929530E+002
  0.17800053E+002
  0.14857698E+002
  0.20276385E+002
  0.21328000E+002
  0.15959946E+002
  0.89899100E+001
  0.56573961E+001
  0.72274289E+001
  0.89183685E+001
  0.81136264E+001
  0.70842443E+001
  0.95628548E+001
  0.98835952E+001
  0.32256505E+001
  0.18979344E+001
  0.12865983E+001
  0.15436262E+001
  0.18072758E+001
  0.16817938E+001
  0.15339126E+001
  0.20388992E+001
  0.20787311E+001
  0.37831218E-001
  0.23374740E-001
  0.16846978E-001
  0.18749696E-001
  0.20843277E-001
  0.19884976E-001
  0.19074689E-001
  0.25027292E-001
  0.25240302E-001
  0.00000000E+000
  0.00000000E+000
  0.00000000E+000
  0.00000000E+000
  0.00000000E+000
  0.00000000E+000
  0.00000000E+000
  0.00000000E+000
  0.00000000E+000
POINT_DATA 160
VECTORS Uconv double
  0.00000000E+000  0.00000000E+000  0.00000000E+000
  0.00000000E+000  0.00000000E+000  0.00000000E+000
  0.00000000E+000  0.00000000E+000  0.00000000E+000
  0.00000000E+000  0.00000000E+000  0.00000000E+000
  0.00000000E+000  0.00000000E+000  0.00000000E+000
  0.00000000E+000  0.00000000E+000  0.00000000E+000
  0.00000000E+000  0.00000000E+000  0.00000000E+000
  0.00000000E+000  0.00000000E+000  0.00000000E+000
  0.00000000E+000  0.00000000E+000  0.00000000E+000
  0.00000000E+000  0.00000000E+000  0.00000000E+000
  0.00000000E+000  0.00000000E+000  0.00000000E+000
  0.00000000E+000  0.00000000E+000  0.00000000E+000
  0.00000000E+000  0.00000000E+000  0.00000000E+000
  0.00000000E+000  0.00000000E+000  0.00000000E+000
  0.00000000E+000  0.00000000E+000  0.00000000E+000
  0.00000000E+000  0.00000000E+000  0.00000000E+000
  0.00000000E+000  0.00000000E+000  0.00000000E+000
  0.00000000E+000  0.00000000E+000  0.00000000E+000
  0.00000000E+000  0.00000000E+000  0.00000000E+000
  0.00000000E+000  0.00000000E+000  0.00000000E+000
  0.17146350E+002  0.11792576E+000 -0.82142615E+000
  0.16956934E+002 -0.61536354E+000 -0.19141476E+001
  0.17063122E+002 -0.30665359E+000 -0.39019917E+000
  0.17068376E+002 -0.29178722E+000 -0.13017592E+000
  0.16925852E+002 -0.70798169E+000 -0.84221836E-001
  0.16871935E+002 -0.87977039E+000  0.18145855E+000
  0.16981069E+002 -0.54915939E+000  0.30856034E+000
  0.17029555E+002 -0.38960516E+000  0.41754675E+000
  0.16985057E+002 -0.50800258E+000  0.53641429E+000
  0.17049409E+002  0.31627313E-001  0.71187379E+000
  0.17156268E+002  0.14267040E+000 -0.89113893E+000
  0.16973601E+002 -0.59171148E+000 -0.18407612E+001
  0.17060962E+002 -0.31270774E+000 -0.36703962E+000
  0.17049853E+002 -0.34699462E+000 -0.16553755E+000
  0.16873617E+002 -0.86143606E+000 -0.10799035E+000
  0.16815658E+002 -0.10437867E+001  0.21165977E+000
  0.16958708E+002 -0.61389777E+000  0.35004713E+000
  0.17025160E+002 -0.40019081E+000  0.43040213E+000
  0.16987486E+002 -0.49721764E+000  0.56528244E+000
  0.17042938E+002  0.16983334E-001  0.68868733E+000
  0.17213410E+002  0.23175186E+000 -0.82776072E+000
  0.16991670E+002 -0.56806136E+000 -0.17854126E+001
  0.17012591E+002 -0.46984532E+000 -0.56613744E+000
  0.17033124E+002 -0.39653644E+000 -0.19408880E+000
  0.16820921E+002 -0.10115975E+001 -0.13099674E+000
  0.16760051E+002 -0.12004322E+001  0.23897482E+000
  0.16939975E+002 -0.66749289E+000  0.38126903E+000
  0.16985344E+002 -0.52685725E+000  0.59101119E+000
  0.16992043E+002 -0.47981589E+000  0.56627596E+000
  0.17048185E+002  0.24464869E-001  0.66383482E+000
  0.17149294E+002  0.10091110E+000 -0.49372065E+000
  0.17015475E+002 -0.52700157E+000 -0.16690144E+001
  0.17013371E+002 -0.46748490E+000 -0.56332201E+000
  0.17021048E+002 -0.43311728E+000 -0.21538181E+000
  0.16800576E+002 -0.10722575E+001 -0.15199144E+000
  0.16739377E+002 -0.12585144E+001  0.25907848E+000
  0.16929307E+002 -0.69868693E+000  0.39926125E+000
  0.16985056E+002 -0.52527729E+000  0.59031386E+000
  0.17000032E+002 -0.45604029E+000  0.56165105E+000
  0.17053456E+002  0.32031309E-001  0.64088152E+000
  0.17142805E+002  0.90114414E-001 -0.47203558E+000
  0.17038492E+002 -0.48789270E+000 -0.15453426E+001
  0.17020065E+002 -0.45025365E+000 -0.54217469E+000
  0.17019888E+002 -0.44243879E+000 -0.21896414E+000
  0.16786270E+002 -0.11123856E+001 -0.16147881E+000
  0.16728080E+002 -0.12867608E+001  0.26280743E+000
  0.16933889E+002 -0.69060187E+000  0.39151162E+000
  0.16991735E+002 -0.50765871E+000  0.57077662E+000
  0.17010987E+002 -0.42700252E+000  0.55067499E+000
  0.17058783E+002  0.39694079E-001  0.61947032E+000
  0.17146883E+002  0.10062609E+000 -0.47071442E+000
  0.17059722E+002 -0.44408258E+000 -0.13715952E+001
  0.17033076E+002 -0.41813274E+000 -0.50263400E+000
  0.17029644E+002 -0.42520325E+000 -0.20847870E+000
  0.16806984E+002 -0.10596978E+001 -0.15677094E+000
  0.16755124E+002 -0.12119606E+001  0.24660025E+000
  0.16953233E+002 -0.64560421E+000  0.36345471E+000
  0.17005538E+002 -0.47387549E+000  0.52700523E+000
  0.17024728E+002 -0.39325702E+000  0.52934203E+000
  0.17064034E+002  0.47360624E-001  0.59962114E+000
  0.17150868E+002  0.11121184E+000 -0.46973965E+000
  0.17074841E+002 -0.40635547E+000 -0.12055482E+001
  0.17052129E+002 -0.37288168E+000 -0.44684976E+000
  0.17054036E+002 -0.37446373E+000 -0.17770312E+000
  0.16865089E+002 -0.91056136E+000 -0.13630363E+000
  0.16768916E+002 -0.11933033E+001  0.29180890E+000
  0.16934779E+002 -0.72140391E+000  0.39276804E+000
  0.17025317E+002 -0.42735419E+000  0.47175786E+000
  0.17043928E+002 -0.35825071E+000  0.50790782E+000
  0.17088445E+002  0.90667778E-001  0.56769180E+000
  0.17154766E+002  0.12207293E+000 -0.46902195E+000
  0.17091633E+002 -0.35543909E+000 -0.94017214E+000
  0.17076340E+002 -0.31699045E+000 -0.39659057E+000
  0.17057380E+002 -0.38860546E+000 -0.17673075E+000
  0.16923093E+002 -0.77958330E+000 -0.14701614E+000
  0.16880714E+002 -0.90215380E+000  0.21966788E+000
  0.16997904E+002 -0.56639832E+000  0.29963274E+000
  0.17050590E+002 -0.36957287E+000  0.40276034E+000
  0.17062012E+002 -0.31829561E+000  0.45597930E+000
  0.17093953E+002  0.98719778E-001  0.55730037E+000
  0.17158415E+002  0.13275297E+000 -0.46898466E+000
  0.17106528E+002 -0.30154574E+000 -0.67864078E+000
  0.17104385E+002 -0.25419933E+000 -0.31396154E+000
  0.17110801E+002 -0.27016464E+000 -0.10287390E+000
  0.17033870E+002 -0.50569440E+000 -0.91805905E-001
  0.17005695E+002 -0.58311099E+000  0.14038624E+000
  0.17070447E+002 -0.39427697E+000  0.18977104E+000
  0.17079743E+002 -0.30403832E+000  0.32424990E+000
  0.17080891E+002 -0.27675095E+000  0.39523829E+000
  0.17097254E+002  0.10253082E+000  0.54462105E+000
  0.17162075E+002  0.14364707E+000 -0.46912760E+000
  0.17115098E+002 -0.26355114E+000 -0.47318196E+000
  0.17134497E+002 -0.18830429E+000 -0.22883176E+000
  0.17166293E+002 -0.14933108E+000 -0.30244509E-001
  0.17143640E+002 -0.24377670E+000 -0.30845367E-001
  0.17128344E+002 -0.28263152E+000  0.61331020E-001
  0.17143812E+002 -0.22502781E+000  0.85463949E-001
  0.17110837E+002 -0.23571808E+000  0.24628631E+000
  0.17099730E+002 -0.23561665E+000  0.33010137E+000
  0.17100445E+002  0.10602101E+000  0.52904359E+000
  0.17113686E+002  0.93167520E-001 -0.89301167E+000
  0.17132366E+002 -0.20616519E+000 -0.24862582E+000
  0.17164687E+002 -0.12349587E+000 -0.15031412E+000
  0.17217844E+002 -0.40352133E-001  0.36224127E-001
  0.17238658E+002 -0.28144608E-001  0.16962159E-001
  0.17234004E+002 -0.34934512E-001 -0.46851461E-002
  0.17211195E+002 -0.75573978E-001 -0.84788319E-002
  0.17142616E+002 -0.16771410E+000  0.16341663E+000
  0.17118541E+002 -0.19429487E+000  0.26670087E+000
  0.17121607E+002  0.14361846E+000  0.51841244E+000
  0.17166564E+002  0.21760965E+000 -0.11584259E+001
  0.17151844E+002 -0.15249357E+000 -0.68084246E-001
  0.17194244E+002 -0.62804126E-001 -0.72215027E-001
  0.17260305E+002  0.47281365E-001  0.93681745E-001
  0.17311181E+002  0.12633153E+000  0.51848194E-001
  0.17316131E+002  0.14208348E+000 -0.53527245E-001
  0.17260372E+002  0.36279818E-001 -0.80601370E-001
  0.17168496E+002 -0.11552996E+000  0.10177552E+000
  0.17137342E+002 -0.15519854E+000  0.18850512E+000
  0.17125872E+002  0.14932585E+000  0.50402687E+000
  0.17178684E+002  0.23586688E+000 -0.10484241E+001
  0.17170796E+002 -0.10260366E+000  0.47446410E-001
  0.17220785E+002 -0.95569031E-002 -0.34224658E-002
  0.17291186E+002  0.10787237E+000  0.13118215E+000
  0.17358464E+002  0.21997357E+000  0.76203908E-001
  0.17370740E+002  0.24978451E+000 -0.85636211E-001
  0.17300981E+002  0.11875999E+000 -0.13442708E+000
  0.17196534E+002 -0.58777080E-001  0.31405251E-001
  0.17155308E+002 -0.11791358E+000  0.11931195E+000
  0.17124503E+002  0.14447860E+000  0.49013801E+000
  0.17181359E+002  0.24174095E+000 -0.97615773E+000
  0.17194055E+002 -0.53814762E-001  0.16851900E+000
  0.17243472E+002  0.35010627E-001  0.53805799E-001
  0.17310430E+002  0.14407735E+000  0.15235669E+000
  0.17382723E+002  0.26366916E+000  0.85046889E-001
  0.17396338E+002  0.29478912E+000 -0.97772547E-001
  0.17326409E+002  0.16853528E+000 -0.16634993E+000
  0.17220346E+002 -0.11371953E-001 -0.25877358E-001
  0.17172489E+002 -0.83924754E-001  0.52880841E-001
  0.17124539E+002  0.14238432E+000  0.47836801E+000
