<?xml version="1.0"?>
<VTKFile type="PolyData" version="0.1" byte_order="LittleEndian">
  <PolyData>
    <Piece NumberOfPoints="     10" NumberOfVerts="  0" NumberOfLines="      9"
           NumberOfStrips="  0" NumberOfPolys="      0">
      <Points>
        <DataArray type="Float32" NumberOfComponents="3" format="ascii">
                       0.07075                      -0.07017                      15.12070
                       1.73903                      -1.70968                      15.12852
                       3.40811                      -3.34838                      15.13626
                       5.07781                      -4.98645                      15.14305
                       6.74814                      -6.62387                      15.14848
                       8.41547                      -8.26444                      15.15627
                      10.08610                      -9.90152                      15.15689
                      11.75681                     -11.53849                      15.15564
                      13.42744                     -13.17552                      15.15237
                      15.09785                     -14.81273                      15.14706
        </DataArray>
      </Points>
      <PointData>
        <DataArray type="Float32" Name="TranslationalVelocity" NumberOfComponents="3" format="ascii">
                       0.12455                       0.12515                       0.00078
                       3.08660                       3.13864                       0.03002
                       6.05205                       6.15848                       0.05691
                       9.02049                       9.18363                       0.07979
                      11.99126                      12.21342                       0.09709
                      14.97198                      15.24142                       0.10691
                      17.94715                      18.27688                       0.10745
                      20.92349                      21.31389                       0.09758
                      23.90056                      24.35149                       0.07569
                      26.87795                      27.38878                       0.04004
        </DataArray>
        <DataArray type="Float32" Name="RotationalVelocity" NumberOfComponents="3" format="ascii">
                      -0.01403                      -0.00405                       1.80439
                      -0.01406                      -0.00330                       1.80712
                      -0.01367                      -0.00208                       1.80967
                      -0.01288                      -0.00045                       1.81187
                      -0.01168                       0.00159                       1.81373
                      -0.00815                       0.00686                       1.81643
                      -0.00581                       0.01008                       1.81727
                      -0.00310                       0.01367                       1.81777
                       0.00009                       0.01777                       1.81792
                       0.00364                       0.02223                       1.81773
        </DataArray>
        <DataArray type="Float32" Name="TranslationalAcceleration" NumberOfComponents="3" format="ascii">
                       0.23735                      -0.01587                       0.05181
                      -0.47235                       0.74356                      -0.26722
                      -0.93477                       1.29388                      -0.56835
                      -1.38626                       1.85786                      -0.80142
                      -1.82910                       2.43061                      -0.95788
                       2.83373                      -1.79826                      -1.10272
                       2.42221                      -1.21875                      -1.17569
                       2.01747                      -0.63710                      -1.16390
                       1.60475                      -0.04665                      -1.12597
                       1.19492                       0.54930                      -1.14327
        </DataArray>
        <DataArray type="Float32" Name="OrientationX" NumberOfComponents="3" format="ascii">
                      -0.00003                       0.00008                       1.00000
                       0.00011                      -0.00009                       1.00000
                       0.00027                      -0.00027                       1.00000
                       0.00045                      -0.00046                       1.00000
                       0.00066                      -0.00066                       1.00000
                       0.00014                       0.00027                       1.00000
                       0.00024                       0.00052                       1.00000
                       0.00040                       0.00069                       1.00000
                       0.00061                       0.00075                       1.00000
                       0.00002                       0.00004                       1.00000
        </DataArray>
        <DataArray type="Float32" Name="OrientationY" NumberOfComponents="3" format="ascii">
                      -0.70229                      -0.71189                       0.00004
                      -0.70166                      -0.71252                       0.00001
                      -0.70098                      -0.71318                      -0.00000
                      -0.70030                      -0.71385                      -0.00001
                      -0.69955                      -0.71458                      -0.00000
                      -0.69798                      -0.71612                       0.00030
                      -0.69806                      -0.71604                       0.00054
                      -0.69829                      -0.71581                       0.00077
                      -0.69865                      -0.71546                       0.00097
                      -0.69812                      -0.71598                       0.00005
        </DataArray>
        <DataArray type="Float32" Name="OrientationZ" NumberOfComponents="3" format="ascii">
                       0.71189                      -0.70229                       0.00008
                       0.71252                      -0.70166                      -0.00014
                       0.71318                      -0.70098                      -0.00039
                       0.71385                      -0.70030                      -0.00064
                       0.71458                      -0.69955                      -0.00093
                       0.71612                      -0.69798                       0.00009
                       0.71604                      -0.69806                       0.00019
                       0.71581                      -0.69829                       0.00019
                       0.71546                      -0.69865                       0.00009
                       0.71598                      -0.69812                       0.00001
        </DataArray>
      </PointData>
      <Lines>
        <DataArray type="Int32" Name="connectivity" format="ascii">
      0      1
      1      2
      2      3
      3      4
      4      5
      5      6
      6      7
      7      8
      8      9
        </DataArray>
        <DataArray type="Int32" Name="offsets" format="ascii">
      2
      4
      6
      8
     10
     12
     14
     16
     18
        </DataArray>
      </Lines>
    </Piece>
  </PolyData>
</VTKFile>
