# vtk DataFile Version 2.0

ASCII
 
DATASET POLYDATA
POINTS 50 double
  0.11630622E-001  0.19649167E-002  0.11318236E+003
  0.93001663E+001  0.18330898E+002  0.10092975E+003
  0.15864738E+002  0.31269561E+002  0.88704915E+002
  0.21361326E+002  0.42099908E+002  0.76463474E+002
  0.24105073E+002  0.47508173E+002  0.64215324E+002
  0.24103592E+002  0.47505742E+002  0.51968825E+002
  0.21359096E+002  0.42095639E+002  0.39721601E+002
  0.15862674E+002  0.31265503E+002  0.27478934E+002
  0.92989704E+001  0.18328189E+002  0.15249144E+002
  0.10680812E-003  0.22270773E-004  0.30000678E+001
  0.24704522E+001 -0.37668805E+001  0.11318296E+003
  0.13232179E+002  0.16329091E+002  0.10093018E+003
  0.18626974E+002  0.29869329E+002  0.88705743E+002
  0.23551793E+002  0.40990323E+002  0.76463786E+002
  0.26116792E+002  0.46487628E+002  0.64215406E+002
  0.26154575E+002  0.46465647E+002  0.51968528E+002
  0.23679070E+002  0.40921229E+002  0.39721026E+002
  0.18917694E+002  0.29715755E+002  0.27479078E+002
  0.13311382E+002  0.16290898E+002  0.15249242E+002
  0.40132610E+001 -0.20358025E+001  0.30033180E+001
  0.25662679E+001 -0.38122131E+001  0.11318291E+003
  0.13697325E+002  0.16089305E+002  0.10093652E+003
  0.19329682E+002  0.29518313E+002  0.88701662E+002
  0.24451821E+002  0.40546427E+002  0.76458949E+002
  0.27118154E+002  0.46001308E+002  0.64214225E+002
  0.27156659E+002  0.45980452E+002  0.51969392E+002
  0.24579506E+002  0.40477975E+002  0.39724683E+002
  0.19619084E+002  0.29362911E+002  0.27482451E+002
  0.13775406E+002  0.16048830E+002  0.15245774E+002
  0.41477963E+001 -0.21079521E+001  0.30014144E+001
  0.26649306E+001 -0.38556622E+001  0.11318291E+003
  0.14157513E+002  0.15843217E+002  0.10093965E+003
  0.20027125E+002  0.29161974E+002  0.88698735E+002
  0.25345554E+002  0.40093713E+002  0.76456092E+002
  0.28110409E+002  0.45500631E+002  0.64213124E+002
  0.28148799E+002  0.45479442E+002  0.51969990E+002
  0.25472327E+002  0.40023629E+002  0.39726956E+002
  0.20314532E+002  0.29002611E+002  0.27484504E+002
  0.14234434E+002  0.15800870E+002  0.15243304E+002
  0.42810523E+001 -0.21793867E+001  0.30003025E+001
  0.27659998E+001 -0.38971140E+001  0.11318291E+003
  0.14612721E+002  0.15591736E+002  0.10094036E+003
  0.20720129E+002  0.28800840E+002  0.88697816E+002
  0.26234071E+002  0.39634066E+002  0.76455271E+002
  0.29095837E+002  0.44990177E+002  0.64212725E+002
  0.29133820E+002  0.44968247E+002  0.51970180E+002
  0.26359491E+002  0.39561655E+002  0.39727635E+002
  0.21004834E+002  0.28636465E+002  0.27485089E+002
  0.14688714E+002  0.15547861E+002  0.15242544E+002
  0.44131139E+001 -0.22499999E+001  0.29999986E+001
  
POLYGONS 36 180
      4      0      1     11     10
      4      1      2     12     11
      4      2      3     13     12
      4      3      4     14     13
      4      4      5     15     14
      4      5      6     16     15
      4      6      7     17     16
      4      7      8     18     17
      4      8      9     19     18
      4     10     11     21     20
      4     11     12     22     21
      4     12     13     23     22
      4     13     14     24     23
      4     14     15     25     24
      4     15     16     26     25
      4     16     17     27     26
      4     17     18     28     27
      4     18     19     29     28
      4     20     21     31     30
      4     21     22     32     31
      4     22     23     33     32
      4     23     24     34     33
      4     24     25     35     34
      4     25     26     36     35
      4     26     27     37     36
      4     27     28     38     37
      4     28     29     39     38
      4     30     31     41     40
      4     31     32     42     41
      4     32     33     43     42
      4     33     34     44     43
      4     34     35     45     44
      4     35     36     46     45
      4     36     37     47     46
      4     37     38     48     47
      4     38     39     49     48
  
CELL_DATA 36
SCALARS Gamma double
LOOKUP_TABLE default
  0.32256505E+001
  0.18979344E+001
  0.12865983E+001
  0.15436262E+001
  0.18072758E+001
  0.16817938E+001
  0.15339126E+001
  0.20388992E+001
  0.20787311E+001
  0.32256505E+001
  0.18979344E+001
  0.12865983E+001
  0.15436262E+001
  0.18072758E+001
  0.16817938E+001
  0.15339126E+001
  0.20388992E+001
  0.20787311E+001
  0.37831218E-001
  0.23374740E-001
  0.16846978E-001
  0.18749696E-001
  0.20843277E-001
  0.19884976E-001
  0.19074689E-001
  0.25027292E-001
  0.25240302E-001
  0.00000000E+000
  0.00000000E+000
  0.00000000E+000
  0.00000000E+000
  0.00000000E+000
  0.00000000E+000
  0.00000000E+000
  0.00000000E+000
  0.00000000E+000
POINT_DATA 50
VECTORS Uconv double
  0.00000000E+000  0.00000000E+000  0.00000000E+000
  0.00000000E+000  0.00000000E+000  0.00000000E+000
  0.00000000E+000  0.00000000E+000  0.00000000E+000
  0.00000000E+000  0.00000000E+000  0.00000000E+000
  0.00000000E+000  0.00000000E+000  0.00000000E+000
  0.00000000E+000  0.00000000E+000  0.00000000E+000
  0.00000000E+000  0.00000000E+000  0.00000000E+000
  0.00000000E+000  0.00000000E+000  0.00000000E+000
  0.00000000E+000  0.00000000E+000  0.00000000E+000
  0.00000000E+000  0.00000000E+000  0.00000000E+000
  0.00000000E+000  0.00000000E+000  0.00000000E+000
  0.00000000E+000  0.00000000E+000  0.00000000E+000
  0.00000000E+000  0.00000000E+000  0.00000000E+000
  0.00000000E+000  0.00000000E+000  0.00000000E+000
  0.00000000E+000  0.00000000E+000  0.00000000E+000
  0.00000000E+000  0.00000000E+000  0.00000000E+000
  0.00000000E+000  0.00000000E+000  0.00000000E+000
  0.00000000E+000  0.00000000E+000  0.00000000E+000
  0.00000000E+000  0.00000000E+000  0.00000000E+000
  0.00000000E+000  0.00000000E+000  0.00000000E+000
  0.17199981E+002  0.28940961E-004 -0.11356757E-003
  0.17199967E+002 -0.53382293E-004 -0.14842753E-003
  0.17199976E+002 -0.41752644E-004 -0.52388418E-004
  0.17199981E+002 -0.39474312E-004 -0.18657753E-004
  0.17199927E+002 -0.14412651E-003 -0.10377232E-004
  0.17199926E+002 -0.14676092E-003  0.12738614E-004
  0.17199977E+002 -0.46306635E-004  0.26310828E-004
  0.17199966E+002 -0.56240853E-004  0.66726287E-004
  0.17199959E+002 -0.62464368E-004  0.12421018E-003
  0.17199956E+002  0.94669383E-005  0.76152742E-004
  0.17199982E+002  0.31976131E-004 -0.11231512E-003
  0.17199976E+002 -0.35950579E-004 -0.10148355E-003
  0.17199984E+002 -0.25744937E-004 -0.30880868E-004
  0.17199982E+002 -0.38815302E-004 -0.17965978E-004
  0.17199966E+002 -0.69865757E-004 -0.10182835E-004
  0.17199965E+002 -0.72199651E-004  0.12593876E-004
  0.17199978E+002 -0.45397118E-004  0.25474692E-004
  0.17199976E+002 -0.38716841E-004  0.43553299E-004
  0.17199969E+002 -0.44720714E-004  0.83333228E-004
  0.17199958E+002  0.12042577E-004  0.73038075E-004
  0.17199983E+002  0.35067242E-004 -0.11104738E-003
  0.17199986E+002 -0.18926762E-004 -0.56109157E-004
  0.17199993E+002 -0.93111663E-005 -0.87709627E-005
  0.17199983E+002 -0.37622461E-004 -0.17078095E-004
  0.17200006E+002  0.57091114E-005 -0.98425835E-005
  0.17200005E+002  0.30889254E-005  0.12151522E-004
  0.17199979E+002 -0.43991855E-004  0.24369669E-004
  0.17199986E+002 -0.20777205E-004  0.19768891E-004
  0.17199979E+002 -0.27279232E-004  0.43611295E-004
  0.17199960E+002  0.14599222E-004  0.70017445E-004
