# vtk DataFile Version 2.0
BldPointCP.BldB
ASCII
 
DATASET POLYDATA
POINTS 9 double
  0.39389261E+001  0.10814478E+002  0.10630225E+003
  0.94891082E+001  0.26523240E+002  0.94538015E+002
  0.13959476E+002  0.39086160E+002  0.82374491E+002
  0.16968376E+002  0.47509513E+002  0.70107921E+002
  0.17921838E+002  0.50170420E+002  0.58087601E+002
  0.16953086E+002  0.47444055E+002  0.46079305E+002
  0.13943159E+002  0.39014778E+002  0.33804979E+002
  0.94671639E+001  0.26487538E+002  0.21596005E+002
  0.38585047E+001  0.10792897E+002  0.98389323E+001
  
POINT_DATA 9
SCALARS Gamma_LL double
LOOKUP_TABLE default
  0.11550391E+003
  0.55599070E+002
  0.22622397E+002
  0.34596947E+002
  0.56909105E+002
  0.48939084E+002
  0.35019932E+002
  0.49063237E+002
  0.56174020E+002
VECTORS Vind_CP double
  0.23994969E-001 -0.85076077E-001 -0.45503166E+000
 -0.53735230E-001 -0.89122478E-001 -0.14412284E+000
 -0.22034691E-001 -0.49648339E-001 -0.30204091E-002
 -0.58644791E-001 -0.23197653E+000 -0.35355929E-001
 -0.13929925E+000 -0.47871976E+000  0.10932425E-001
 -0.97475921E-001 -0.33891083E+000  0.99523542E-001
 -0.47760122E-001 -0.13387743E+000  0.75608181E-001
 -0.60457801E-001 -0.14701665E+000  0.14746167E+000
 -0.89147482E-001 -0.62598653E-001  0.14220113E+000
VECTORS Vtot_CP double
  0.34995710E+002 -0.73664084E+001  0.31306522E+000
  0.64167270E+002 -0.18171081E+002  0.45519698E+000
  0.87241547E+002 -0.27240151E+002 -0.55157682E+000
  0.10294867E+003 -0.31987642E+002 -0.45461134E+000
  0.10803337E+003 -0.32633625E+002  0.13854207E+000
  0.10289478E+003 -0.30881462E+002  0.57602485E+000
  0.87336841E+002 -0.25904140E+002  0.87435098E+000
  0.64735511E+002 -0.17613630E+002  0.52930330E+000
  0.36551006E+002 -0.70144893E+001  0.98473582E-001
VECTORS Vstr_CP double
 -0.17771715E+002  0.72813323E+001 -0.76809688E+000
 -0.47021005E+002  0.18081959E+002 -0.59931982E+000
 -0.70063582E+002  0.27190503E+002  0.54855641E+000
 -0.85807317E+002  0.31755666E+002  0.41925541E+000
 -0.90972674E+002  0.32154905E+002 -0.12760965E+000
 -0.85792254E+002  0.30542552E+002 -0.47650131E+000
 -0.70184602E+002  0.25770262E+002 -0.79874279E+000
 -0.47595969E+002  0.17466614E+002 -0.38184163E+000
 -0.19440153E+002  0.69518907E+001  0.43727553E-001
VECTORS Vwnd_CP double
  0.17200000E+002  0.00000000E+000  0.00000000E+000
  0.17200000E+002  0.00000000E+000  0.00000000E+000
  0.17200000E+002  0.00000000E+000  0.00000000E+000
  0.17200000E+002  0.00000000E+000  0.00000000E+000
  0.17200000E+002  0.00000000E+000  0.00000000E+000
  0.17200000E+002  0.00000000E+000  0.00000000E+000
  0.17200000E+002  0.00000000E+000  0.00000000E+000
  0.17200000E+002  0.00000000E+000  0.00000000E+000
  0.17200000E+002  0.00000000E+000  0.00000000E+000
VECTORS Tangent double
  0.81703738E+000 -0.57658455E+000  0.41420526E-003
  0.93950426E+000 -0.34253528E+000 -0.11566374E-002
  0.94346079E+000 -0.33148361E+000 -0.59655844E-003
  0.94300069E+000 -0.33279078E+000  0.93559964E-005
  0.94062851E+000 -0.33943777E+000 -0.33897349E-004
  0.94155274E+000 -0.33686557E+000 -0.17544077E-003
  0.94261404E+000 -0.33388435E+000 -0.68453413E-004
  0.94150357E+000 -0.33700300E+000  0.85410227E-004
  0.94122993E+000 -0.33775415E+000  0.28905982E-002
VECTORS Normal double
  0.30530156E+000  0.43323053E+000  0.84799898E+000
  0.21979015E+000  0.60024269E+000  0.76902601E+000
  0.23497711E+000  0.66751474E+000  0.70654782E+000
  0.29958725E+000  0.84892693E+000  0.43539700E+000
  0.33943536E+000  0.94062220E+000 -0.36773126E-002
  0.30262927E+000  0.84608944E+000 -0.43880312E+000
  0.23700835E+000  0.66926048E+000 -0.70421407E+000
  0.21620008E+000  0.60381545E+000 -0.76724470E+000
  0.17539735E+000  0.48143577E+000 -0.85875221E+000
VECTORS Orth double
  0.48912256E+000  0.69272041E+000 -0.52999770E+000
  0.26272427E+000  0.72275742E+000 -0.63921645E+000
  0.23381081E+000  0.66674034E+000 -0.70766505E+000
  0.14490405E+000  0.41057687E+000 -0.90023855E+000
 -0.12801034E-002 -0.34474791E-002 -0.99999324E+000
 -0.14796610E+000 -0.41310319E+000 -0.89858321E+000
 -0.23517187E+000 -0.66378584E+000 -0.70998771E+000
 -0.25851219E+000 -0.72238209E+000 -0.64135447E+000
 -0.28865548E+000 -0.80879029E+000 -0.51238294E+000
