<?xml version="1.0"?>
<VTKFile type="PolyData" version="0.1" byte_order="LittleEndian">
  <PolyData>
    <Piece NumberOfPoints="    165" NumberOfVerts="  0" NumberOfLines="      0"
           NumberOfStrips="  0" NumberOfPolys="      0">
      <Points>
        <DataArray type="Float32" NumberOfComponents="3" format="ascii">
                       0.03561                       0.00625                     113.18187
                      -6.90593                      -0.62290                     109.52390
                     -13.36858                      -1.20903                     105.86385
                     -19.35224                      -1.75253                     102.20177
                     -21.05403                      -1.90731                     101.10295
                     -24.85627                      -2.25353                      98.53712
                     -29.87773                      -2.71137                      94.86595
                     -34.41718                      -3.12599                      91.18993
                     -38.47620                      -3.49736                      87.51182
                     -42.05632                      -3.82546                      83.83369
                     -45.15839                      -4.11020                      80.15643
                     -47.78327                      -4.35155                      76.48056
                     -49.93119                      -4.54946                      72.80597
                     -51.60210                      -4.70382                      69.13235
                     -52.79647                      -4.81453                      65.45953
                     -53.51395                      -4.88137                      61.78705
                     -53.75339                      -4.90417                      58.11452
                     -53.51437                      -4.88283                      54.44196
                     -52.79702                      -4.81732                      50.76945
                     -51.60248                      -4.70771                      47.09671
                     -49.93157                      -4.55414                      43.42313
                     -47.78446                      -4.35669                      39.74817
                     -45.16150                      -4.11541                      36.07111
                     -42.06190                      -3.83035                      32.39202
                     -38.48384                      -3.50154                      28.71225
                     -34.42587                      -3.12916                      25.03345
                     -29.88634                      -2.71349                      21.35808
                     -24.86506                      -2.25495                      17.68723
                     -21.06492                      -1.90872                      15.11868
                     -19.36479                      -1.75409                      14.01756
                     -13.38752                      -1.21157                      10.34602
                      -6.93271                      -0.62704                       6.67322
                       0.00016                       0.00004                       3.00011
                       0.03561                       0.00625                     113.18187
                       2.95075                       6.32707                     109.50490
                       5.66348                      12.20843                     105.82178
                       8.17594                      17.65251                     102.13828
                       8.89109                      19.20137                     101.03475
                      10.49232                      22.66818                      98.46836
                      12.61351                      27.25841                      94.81449
                      14.53535                      31.41450                      91.16155
                      16.25470                      35.13012                      87.50107
                      17.76998                      38.40279                      83.83146
                      19.08111                      41.23333                      80.15543
                      20.18860                      43.62375                      76.47633
                      21.09317                      45.57622                      72.79672
                      21.79554                      47.09254                      69.11808
                      22.29623                      48.17388                      65.44097
                      22.59582                      48.82127                      61.76545
                      22.69485                      49.03571                      58.09105
                      22.59356                      48.81747                      54.41691
                      22.29188                      48.16627                      50.74219
                      21.78942                      47.08116                      47.06636
                      21.08577                      45.56126                      43.38928
                      20.18052                      43.60572                      39.71120
                      19.07294                      41.21294                      36.03333
                      17.76227                      38.38127                      32.35760
                      16.24805                      35.10958                      28.68614
                      14.53017                      31.39746                      25.02074
                      12.60958                      27.24686                      21.36016
                      10.48808                      22.66173                      17.69929
                       8.88437                      19.19562                      15.13302
                       8.16725                      17.64569                      14.03182
                       5.64649                      12.19780                      10.35800
                       2.92461                       6.31641                       6.67977
                       0.00016                       0.00004                       3.00011
                       0.03561                       0.00625                     113.18187
                       4.03658                      -5.69030                     109.50604
                       7.75994                     -10.99117                     105.82482
                      11.20801                     -15.89774                     102.14313
                      12.18924                     -17.29347                     101.03982
                      14.38534                     -20.41652                      98.47231
                      17.29313                     -24.55014                      94.81483
                      19.92700                     -28.29242                      91.15869
                      22.28360                     -31.63874                      87.49689
                      24.36124                     -34.58710                      83.82780
                      26.15980                     -37.13792                      80.15331
                      27.67975                     -39.29247                      76.47590
                      28.92177                     -41.05221                      72.79760
                      29.88659                     -42.41862                      69.11977
                      30.57480                     -43.39285                      65.44313
                      30.98702                     -43.97601                      61.76783
                      31.12388                     -44.16906                      58.09353
                      30.98562                     -43.97231                      54.41946
                      30.57211                     -43.38548                      50.74486
                      29.88280                     -42.40763                      47.06931
                      28.91713                     -41.03777                      43.39285
                      27.67456                     -39.27497                      39.71595
                      26.15426                     -37.11797                      36.03982
                      24.35563                     -34.56583                      32.36591
                      22.27844                     -31.61824                      28.69546
                      19.92286                     -28.27544                      25.02919
                      17.29006                     -24.53907                      21.36555
                      14.38178                     -20.41156                      17.70089
                      12.18274                     -17.29051                      15.13306
                      11.19919                     -15.89450                      14.03177
                       7.74183                     -10.98702                      10.35857
                       4.00922                      -5.68905                       6.68084
                       0.00016                       0.00004                       3.00011
                      -0.09933                      -0.00886                      15.12047
                      -2.10631                      -0.19030                      15.12068
                      -4.21287                      -0.38091                      15.12115
                      -6.31942                      -0.57165                      15.12168
                      -8.42595                      -0.76251                      15.12210
                     -10.53247                      -0.95347                      15.12228
                     -12.63898                      -1.14449                      15.12214
                     -14.74547                      -1.33555                      15.12165
                     -16.85196                      -1.52663                      15.12081
                     -18.95844                      -1.71769                      15.11975
                     -21.06492                      -1.90872                      15.11868
                       0.04227                       0.09088                      15.12047
                       0.88874                       1.91967                      15.12301
                       1.77720                       3.83922                      15.12560
                       2.66564                       5.75878                      15.12801
                       3.55407                       7.67833                      15.13013
                       4.44248                       9.59789                      15.13189
                       5.33088                      11.51745                      15.13323
                       6.21927                      13.43701                      15.13410
                       7.10765                      15.35656                      15.13444
                       7.99602                      17.27610                      15.13413
                       8.88437                      19.19562                      15.13302
                       0.05785                      -0.08162                      15.12047
                       1.21840                      -1.72903                      15.12301
                       2.43659                      -3.45816                      15.12559
                       3.65482                      -5.18726                      15.12797
                       4.87308                      -6.91634                      15.13006
                       6.09135                      -8.64539                      15.13177
                       7.30965                     -10.37443                      15.13306
                       8.52794                     -12.10345                      15.13387
                       9.74623                     -13.83247                      15.13418
                      10.96450                     -15.56149                      15.13392
                      12.18274                     -17.29051                      15.13306
                      -0.08912                      -0.00694                     101.06332
                      -2.09603                      -0.18854                     101.06456
                      -4.20253                      -0.37928                     101.06681
                      -6.30901                      -0.57013                     101.06989
                      -8.41548                      -0.76106                     101.07368
                     -10.52193                      -0.95206                     101.07807
                     -12.62837                      -1.14310                     101.08294
                     -14.73480                      -1.33417                     101.08815
                     -16.84121                      -1.52524                     101.09348
                     -18.94763                      -1.71630                     101.09857
                     -21.05403                      -1.90731                     101.10295
                       0.05249                       0.09281                     101.06332
                       0.89879                       1.92188                     101.06183
                       1.78702                       3.84175                     101.05999
                       2.67517                       5.76166                     101.05772
                       3.56327                       7.68159                     101.05490
                       4.45132                       9.60154                     101.05155
                       5.33934                      11.52150                     101.04776
                       6.22731                      13.44146                     101.04373
                       7.11527                      15.36144                     101.03982
                       8.00319                      17.28140                     101.03658
                       8.89109                      19.20137                     101.03475
                       0.06806                      -0.07970                     101.06332
                       1.22873                      -1.72724                     101.06222
                       2.44688                      -3.45662                     101.06082
                       3.66492                      -5.18608                     101.05902
                       4.88286                      -6.91560                     101.05674
                       6.10074                      -8.64517                     101.05398
                       7.31854                     -10.37478                     101.05082
                       8.53629                     -12.10442                     101.04745
                       9.75399                     -13.83408                     101.04417
                      10.97163                     -15.56377                     101.04143
                      12.18924                     -17.29347                     101.03982
        </DataArray>
      </Points>
      <PointData>
        <DataArray type="Float32" Name="TranslationalVelocity" NumberOfComponents="3" format="ascii">
                       1.48812                       0.27652                      -0.01941
                       2.31591                     -12.34033                       0.55884
                       3.05459                     -24.10766                       1.12180
                       3.74084                     -35.03564                       1.60902
                       3.93691                     -38.15160                       1.74106
                       4.41379                     -45.12552                       1.97186
                       5.17648                     -54.35067                       2.07647
                       6.02493                     -62.70859                       1.96975
                       6.91572                     -70.20269                       1.74212
                       7.77908                     -76.83593                       1.49310
                       8.55302                     -82.60789                       1.28753
                       9.19630                     -87.51631                       1.15123
                       9.69687                     -91.55560                       1.07704
                      10.05900                     -94.71851                       1.04634
                      10.28860                     -96.99818                       1.04162
                      10.40492                     -98.38545                       1.04543
                      10.43411                     -98.87088                       1.04797
                      10.38593                     -98.44897                       1.04882
                      10.25337                     -97.11811                       1.04829
                      10.00544                     -94.88260                       1.03620
                       9.60939                     -91.74915                       0.98908
                       9.04668                     -87.72398                       0.87879
                       8.31818                     -82.81411                       0.68392
                       7.46606                     -77.02457                       0.41742
                       6.56557                     -70.35846                       0.14041
                       5.68356                     -62.82249                      -0.06678
                       4.85263                     -54.42621                      -0.14017
                       4.04347                     -45.18318                      -0.08962
                       3.44702                     -38.21869                      -0.03244
                       3.17479                     -35.11360                      -0.01559
                       2.20321                     -24.23549                       0.01291
                       1.14097                     -12.53708                       0.00973
                       0.00187                       0.00059                       0.00178
                       1.48812                       0.27652                      -0.01941
                     -10.25546                       5.53597                      -0.32870
                     -21.24027                      10.37105                      -0.73340
                     -31.37379                      14.87832                      -1.01245
                     -34.23692                      16.18623                      -1.03959
                     -40.57025                      19.24403                      -0.88831
                     -48.81069                      23.54645                      -0.30607
                     -56.16381                      27.58937                       0.38570
                     -62.70731                      31.17160                       0.91044
                     -68.51444                      34.13990                       1.12390
                     -73.62582                      36.44295                       1.04100
                     -78.03960                      38.13180                       0.77960
                     -81.72488                      39.31531                       0.47394
                     -84.64339                      40.10634                       0.21673
                     -86.76289                      40.59135                       0.04663
                     -88.06084                      40.82610                      -0.04027
                     -88.52343                      40.84089                      -0.07352
                     -88.14497                      40.64131                      -0.09391
                     -86.92674                      40.21389                      -0.14111
                     -84.87754                      39.52685                      -0.24351
                     -82.01273                      38.53731                      -0.41092
                     -78.35712                      37.18444                      -0.62309
                     -73.94386                      35.38786                      -0.81879
                     -68.80115                      33.07890                      -0.91348
                     -62.93811                      30.23297                      -0.83982
                     -56.33941                      26.88281                      -0.58731
                     -48.97092                      23.11516                      -0.23086
                     -40.79939                      19.02672                       0.10470
                     -34.59245                      16.00724                       0.26964
                     -31.80993                      14.67302                       0.31909
                     -22.00396                      10.05198                       0.38358
                     -11.38472                       5.17888                       0.24653
                       0.00187                       0.00059                       0.00178
                       1.48812                       0.27652                      -0.01941
                      11.45022                       7.40426                      -0.26323
                      20.64803                      14.08222                      -0.61234
                      29.18601                      20.24966                      -0.86583
                      31.63385                      21.98717                      -0.89485
                      37.19158                      25.77648                      -0.77825
                      44.70803                      30.59756                      -0.29024
                      51.63479                      34.84845                       0.30863
                      57.86777                      38.67541                       0.78349
                      63.32086                      42.19589                       1.00496
                      67.95320                      45.45685                       0.97399
                      71.76916                      48.43214                       0.77692
                      74.80434                      51.04684                       0.52244
                      77.10466                      53.21154                       0.29492
                      78.70946                      54.84761                       0.13697
                      79.64896                      55.89514                       0.05298
                      79.94370                      56.31647                       0.01946
                      79.59978                      56.10025                      -0.00171
                      78.61082                      55.25816                      -0.04861
                      76.95601                      53.82571                      -0.14529
                      74.60694                      51.85325                      -0.29234
                      71.52805                      49.40144                      -0.46010
                      67.67953                      46.53290                      -0.58851
                      63.03846                      43.28365                      -0.61501
                      57.60995                      39.64716                      -0.50967
                      51.42320                      35.58119                      -0.29175
                      44.52446                      31.02318                      -0.03390
                      36.95082                      25.92692                       0.18578
                      31.25235                      22.03494                       0.30016
                      28.70817                      20.29004                       0.34290
                      19.79762                      14.11340                       0.41424
                      10.24174                       7.34397                       0.28650
                       0.00187                       0.00059                       0.00178
                       0.01136                      -0.17796                       0.00501
                       0.33760                      -3.80128                       0.00779
                       0.68092                      -7.61098                       0.01599
                       1.02506                     -11.42649                       0.02578
                       1.36989                     -15.24687                       0.03391
                       1.71531                     -19.07120                       0.03790
                       2.06121                     -22.89852                       0.03605
                       2.40746                     -26.72788                       0.02744
                       2.75396                     -30.55834                       0.01194
                       3.10050                     -34.38893                      -0.00880
                       3.44702                     -38.21869                      -0.03244
                      -0.16829                       0.07710                       0.00501
                      -3.46470                       1.60291                       0.09413
                      -6.92409                       3.20412                       0.18382
                     -10.38300                       4.80505                       0.26368
                     -13.84156                       6.40575                       0.32862
                     -17.29988                       8.00626                       0.37460
                     -20.75809                       9.60663                       0.39883
                     -24.21632                      11.20689                       0.39991
                     -27.67469                      12.80709                       0.37802
                     -31.13335                      14.40717                       0.33381
                     -34.59245                      16.00724                       0.26964
                       0.14242                       0.10515                       0.00501
                       3.11409                       2.19936                       0.09382
                       6.23573                       4.39939                       0.18312
                       9.35952                       6.60106                       0.26280
                      12.48505                       8.80409                       0.32801
                      15.61193                      11.00819                       0.37499
                      18.73976                      13.21308                       0.40129
                      21.86812                      15.41847                       0.40585
                      24.99661                      17.62409                       0.38918
                      28.12481                      19.82968                       0.35285
                      31.25235                      22.03494                       0.30016
                       0.48501                      -0.09228                       0.00554
                       0.81318                      -3.72264                       0.06740
                       1.15838                      -7.53794                       0.17760
                       1.50427                     -11.35744                       0.32586
                       1.85077                     -15.18046                       0.50405
                       2.19780                     -19.00625                       0.70426
                       2.54525                     -22.83412                       0.91855
                       2.89302                     -26.66333                       1.13879
                       3.24101                     -30.49314                       1.35634
                       3.58900                     -34.32281                       1.56087
                       3.93691                     -38.15160                       1.74106
                       0.30535                       0.16277                       0.00554
                      -2.99844                       1.69613                      -0.10512
                      -6.46667                       3.30562                      -0.22638
                      -9.93540                       4.91514                      -0.35229
                     -13.40464                       6.52470                      -0.48115
                     -16.87443                       8.13434                      -0.60995
                     -20.34489                       9.74411                      -0.73418
                     -23.81614                      11.35409                      -0.84787
                     -27.28838                      12.96438                      -0.94353
                     -30.76186                      14.57503                      -1.01119
                     -34.23692                      16.18623                      -1.03959
                       0.61606                       0.19083                       0.00554
                       3.59376                       2.28397                      -0.08337
                       6.71692                       4.47904                      -0.18206
                       9.83790                       6.67234                      -0.28615
                      12.95689                       8.86406                      -0.39444