<?xml version="1.0"?>
<VTKFile type="PolyData" version="0.1" byte_order="LittleEndian">
  <PolyData>
    <Piece NumberOfPoints="     10" NumberOfVerts="  0" NumberOfLines="      9"
           NumberOfStrips="  0" NumberOfPolys="      0">
      <Points>
        <DataArray type="Float32" NumberOfComponents="3" format="ascii">
                       0.31623                       0.06960                     113.18073
                       4.89667                      20.01317                     100.76703
                       8.20611                      34.26642                      88.70825
                      11.00761                      46.16914                      76.56277
                      12.36157                      51.87072                      64.21363
                      12.36567                      51.76166                      51.94830
                      11.00424                      45.97431                      39.64374
                       8.18610                      34.17409                      27.39445
                       4.79040                      19.98614                      15.26293
                       0.00016                       0.00003                       3.00019
        </DataArray>
      </Points>
      <PointData>
        <DataArray type="Float32" Name="TranslationalVelocity" NumberOfComponents="3" format="ascii">
                       3.26804                       0.81049                      -0.01174
                     -34.44144                       8.77550                      -1.16100
                     -61.32930                      15.76127                      -0.49465
                     -83.56862                      21.58889                       0.36428
                     -94.35137                      22.96428                      -0.10016
                     -93.97011                      22.11585                      -0.13697
                     -83.02728                      19.97970                      -0.37932
                     -61.50845                      15.12042                      -0.44910
                     -36.00382                       8.63429                      -0.02128
                      -0.00039                      -0.00040                       0.00021
        </DataArray>
        <DataArray type="Float32" Name="RotationalVelocity" NumberOfComponents="3" format="ascii">
                      -0.01317                       0.09719                       1.81463
                       0.00863                       0.13156                       1.80200
                       0.11629                       0.05047                       1.83380
                      -0.04086                      -0.00781                       1.89969
                      -0.11937                      -0.00613                       1.89419
                      -0.00411                      -0.03564                       1.81789
                       0.04342                      -0.04800                       1.78802
                      -0.03563                      -0.00338                       1.79492
                      -0.01120                       0.00102                       1.80028
                       0.02386                       0.00706                       1.80179
        </DataArray>
        <DataArray type="Float32" Name="TranslationalAcceleration" NumberOfComponents="3" format="ascii">
                       9.94474                      -9.31241                      -0.33236
                       8.41087                      -3.67680                       6.85690
                       0.66640                     -18.13190                      -8.24586
                      -4.38699                     -11.77421                     -10.14379
                      -2.43211                       7.27984                       0.06316
                      -1.41717                       8.69365                       1.78547
                      -2.41842                      -3.19846                       8.64765
                      -2.61396                      -8.76611                       8.50299
                       0.20780                       1.59611                      -0.36202
                       0.01314                       0.00340                      -0.04343
        </DataArray>
        <DataArray type="Float32" Name="OrientationX" NumberOfComponents="3" format="ascii">
                       0.69028                       0.72346                      -0.01122
                       0.25534                       0.96683                       0.00640
                       0.23229                       0.97265                      -0.00131
                       0.21973                       0.97553                      -0.00757
                       0.23405                       0.97222                       0.00205
                       0.24077                       0.97055                       0.00766
                       0.22702                       0.97389                      -0.00119
                       0.22998                       0.97320                      -0.00124
                       0.23572                       0.97182                       0.00105
                       0.23353                       0.97232                       0.00727
        </DataArray>
        <DataArray type="Float32" Name="OrientationY" NumberOfComponents="3" format="ascii">
                       0.72354                      -0.69027                       0.00531
                       0.96685                      -0.25533                      -0.00277
                       0.97264                      -0.23229                      -0.00430
                       0.97555                      -0.21975                      -0.00210
                       0.97222                      -0.23405                      -0.00024
                       0.97058                      -0.24078                      -0.00027
                       0.97389                      -0.22702                      -0.00045
                       0.97320                      -0.22998                      -0.00000
                       0.97182                      -0.23572                       0.00012
                       0.97227                      -0.23360                       0.01061
        </DataArray>
        <DataArray type="Float32" Name="OrientationZ" NumberOfComponents="3" format="ascii">
                      -0.00390                      -0.01179                      -0.99992
                      -0.00104                       0.00689                      -0.99998
                      -0.00449                      -0.00028                      -0.99999
                      -0.00371                      -0.00693                      -0.99997
                       0.00024                       0.00205                      -1.00000
                       0.00158                       0.00750                      -0.99997
                      -0.00071                      -0.00106                      -1.00000
                      -0.00029                      -0.00121                      -1.00000
                       0.00037                       0.00099                      -1.00000
                       0.01201                       0.00459                      -0.99992
        </DataArray>
      </PointData>
      <Lines>
        <DataArray type="Int32" Name="connectivity" format="ascii">
      0      1
      1      2
      2      3
      3      4
      4      5
      5      6
      6      7
      7      8
      8      9
        </DataArray>
        <DataArray type="Int32" Name="offsets" format="ascii">
      2
      4
      6
      8
     10
     12
     14
     16
     18
        </DataArray>
      </Lines>
    </Piece>
  </PolyData>
</VTKFile>
