<?xml version="1.0"?>
<VTKFile type="PolyData" version="0.1" byte_order="LittleEndian">
  <PolyData>
    <Piece NumberOfPoints="     10" NumberOfVerts="  0" NumberOfLines="      9"
           NumberOfStrips="  0" NumberOfPolys="      0">
      <Points>
        <DataArray type="Float32" NumberOfComponents="3" format="ascii">
                       0.22230                       0.04672                     113.18103
                       5.92858                      19.72023                     100.80498
                      10.03179                      33.74526                      88.72048
                      13.49269                      45.44817                      76.54740
                      15.16964                      51.10374                      64.21568
                      15.16398                      51.02795                      51.95278
                      13.47506                      45.30560                      39.65746
                      10.01700                      33.67021                      27.41099
                       5.86299                      19.69812                      15.26344
                       0.00018                       0.00004                       3.00019
        </DataArray>
      </Points>
      <PointData>
        <DataArray type="Float32" Name="TranslationalVelocity" NumberOfComponents="3" format="ascii">
                       2.97801                       0.70922                      -0.00839
                     -34.18863                      10.69922                      -1.32908
                     -60.32388                      19.54818                      -0.20135
                     -82.00413                      26.42046                       0.69566
                     -92.84000                      27.77466                      -0.09500
                     -92.61330                      26.92765                      -0.17431
                     -81.72719                      24.60958                      -0.63256
                     -60.50568                      18.65399                      -0.68016
                     -35.48182                      10.56555                       0.01107
                      -0.00053                      -0.00031                       0.00036
        </DataArray>
        <DataArray type="Float32" Name="RotationalVelocity" NumberOfComponents="3" format="ascii">
                      -0.02428                       0.09905                       1.81270
                       0.02333                       0.11927                       1.80076
                       0.15455                       0.01939                       1.83169
                      -0.09114                       0.00550                       1.88371
                      -0.15626                       0.01524                       1.87209
                       0.02765                      -0.03891                       1.81237
                       0.07090                      -0.05134                       1.79173
                      -0.05730                       0.00703                       1.79660
                      -0.01905                       0.00300                       1.79989
                       0.02427                       0.00559                       1.80174
        </DataArray>
        <DataArray type="Float32" Name="TranslationalAcceleration" NumberOfComponents="3" format="ascii">
                      13.32749                      -6.91954                       0.21196
                      11.08858                      -2.15264                       3.63009
                       1.39165                     -14.14225                     -10.04159
                      -5.65067                      -5.12853                      -9.38270
                      -4.84264                       7.70223                      -1.06826
                      -2.57955                       4.75103                       1.17522
                      -1.53210                      -3.28422                       6.91351
                      -1.81455                      -6.63885                       6.23560
                       0.67528                       2.46692                      -1.62047
                      -0.00905                      -0.00745                       0.03877
        </DataArray>
        <DataArray type="Float32" Name="OrientationX" NumberOfComponents="3" format="ascii">
                       0.72762                       0.68594                      -0.00795
                       0.30265                       0.95308                       0.00638
                       0.28288                       0.95915                      -0.00145
                       0.27389                       0.96174                      -0.00637
                       0.28632                       0.95813                       0.00155
                       0.29193                       0.95642                       0.00577
                       0.28028                       0.95992                      -0.00130
                       0.28263                       0.95923                      -0.00107
                       0.28776                       0.95770                       0.00100
                       0.28550                       0.95836                       0.00549
        </DataArray>
        <DataArray type="Float32" Name="OrientationY" NumberOfComponents="3" format="ascii">
                       0.68598                      -0.72762                       0.00354
                       0.95310                      -0.30264                      -0.00198
                       0.95915                      -0.28289                      -0.00251
                       0.96176                      -0.27391                      -0.00086
                       0.95814                      -0.28632                      -0.00006
                       0.95644                      -0.29193                      -0.00016
                       0.95992                      -0.28028                      -0.00031
                       0.95923                      -0.28263                       0.00003
                       0.95770                      -0.28776                       0.00012
                       0.95833                      -0.28554                       0.00818
        </DataArray>
        <DataArray type="Float32" Name="OrientationZ" NumberOfComponents="3" format="ascii">
                      -0.00336                      -0.00803                      -0.99996
                       0.00004                       0.00668                      -0.99998
                      -0.00282                      -0.00068                      -1.00000
                      -0.00257                      -0.00589                      -0.99998
                       0.00038                       0.00150                      -1.00000
                       0.00153                       0.00556                      -0.99998
                      -0.00066                      -0.00116                      -1.00000
                      -0.00028                      -0.00103                      -1.00000
                       0.00040                       0.00092                      -1.00000
                       0.00941                       0.00292                      -0.99995
        </DataArray>
      </PointData>
      <Lines>
        <DataArray type="Int32" Name="connectivity" format="ascii">
      0      1
      1      2
      2      3
      3      4
      4      5
      5      6
      6      7
      7      8
      8      9
        </DataArray>
        <DataArray type="Int32" Name="offsets" format="ascii">
      2
      4
      6
      8
     10
     12
     14
     16
     18
        </DataArray>
      </Lines>
    </Piece>
  </PolyData>
</VTKFile>
