# vtk DataFile Version 2.0

ASCII
 
DATASET POLYDATA
POINTS 50 double
  0.11630622E-001  0.19649167E-002  0.11318236E+003
 -0.20518019E+002 -0.11108809E+001  0.10095270E+003
 -0.34991555E+002 -0.18972646E+001  0.88711277E+002
 -0.47104345E+002 -0.25581382E+001  0.76462559E+002
 -0.53161787E+002 -0.28901921E+001  0.64219216E+002
 -0.53162039E+002 -0.28905514E+001  0.51977300E+002
 -0.47103531E+002 -0.25617958E+001  0.39734787E+002
 -0.34992004E+002 -0.18991286E+001  0.27483840E+002
 -0.20521232E+002 -0.11121371E+001  0.15241762E+002
  0.10680812E-003  0.22270773E-004  0.30000678E+001
 -0.44817476E+001 -0.24205670E+000  0.11318004E+003
 -0.20761624E+002  0.32946393E+001  0.10095422E+003
 -0.35167065E+002  0.11946254E+001  0.88714572E+002
 -0.47241053E+002 -0.10647791E+000  0.76463960E+002
 -0.53285326E+002 -0.63780147E+000  0.64219524E+002
 -0.53287345E+002 -0.59433219E+000  0.51976124E+002
 -0.47242269E+002  0.34790466E-001  0.39731848E+002
 -0.35175057E+002  0.15215955E+001  0.27483461E+002
 -0.20763394E+002  0.33813423E+001  0.15241748E+002
 -0.24339506E+000  0.44934293E+001  0.30000601E+001
 -0.43206537E+001 -0.16174797E+000  0.11318190E+003
 -0.20526519E+002  0.36688571E+001  0.10094575E+003
 -0.34965405E+002  0.18310269E+001  0.88704738E+002
 -0.47067765E+002  0.75089821E+000  0.76458730E+002
 -0.53123262E+002  0.33088660E+000  0.64215182E+002
 -0.53124396E+002  0.37472922E+000  0.51972030E+002
 -0.47068957E+002  0.89396820E+000  0.39728585E+002
 -0.34971424E+002  0.21587783E+001  0.27484351E+002
 -0.20527634E+002  0.37560914E+001  0.15242122E+002
  0.97401270E-002  0.44970828E+001  0.30000227E+001
 -0.41544223E+001 -0.80994513E-001  0.11318273E+003
 -0.20283903E+002  0.40413479E+001  0.10094144E+003
 -0.34751701E+002  0.24649256E+001  0.88699314E+002
 -0.46875737E+002  0.16046064E+001  0.76455983E+002
 -0.52939839E+002  0.12951849E+001  0.64213178E+002
 -0.52940455E+002  0.13390718E+001  0.51970446E+002
 -0.46877168E+002  0.17489713E+001  0.39727665E+002
 -0.34755955E+002  0.27933811E+001  0.27484935E+002
 -0.20284871E+002  0.41289638E+001  0.15242436E+002
  0.26290307E+000  0.44992713E+001  0.30000073E+001
 -0.39840005E+001 -0.63202621E-006  0.11318291E+003
 -0.20035201E+002  0.44122504E+001  0.10094036E+003
 -0.34528324E+002  0.30968689E+001  0.88697816E+002
 -0.46667145E+002  0.24554691E+001  0.76455271E+002
 -0.52736554E+002  0.22557757E+001  0.64212725E+002
 -0.52736554E+002  0.22996356E+001  0.51970179E+002
 -0.46667145E+002  0.26002916E+001  0.39727634E+002
 -0.34528325E+002  0.34256184E+001  0.27485088E+002
 -0.20035201E+002  0.45000000E+001  0.15242543E+002
  0.51599865E+000  0.44999993E+001  0.30000015E+001
  
POLYGONS 36 180
      4      0      1     11     10
      4      1      2     12     11
      4      2      3     13     12
      4      3      4     14     13
      4      4      5     15     14
      4      5      6     16     15
      4      6      7     17     16
      4      7      8     18     17
      4      8      9     19     18
      4     10     11     21     20
      4     11     12     22     21
      4     12     13     23     22
      4     13     14     24     23
      4     14     15     25     24
      4     15     16     26     25
      4     16     17     27     26
      4     17     18     28     27
      4     18     19     29     28
      4     20     21     31     30
      4     21     22     32     31
      4     22     23     33     32
      4     23     24     34     33
      4     24     25     35     34
      4     25     26     36     35
      4     26     27     37     36
      4     27     28     38     37
      4     28     29     39     38
      4     30     31     41     40
      4     31     32     42     41
      4     32     33     43     42
      4     33     34     44     43
      4     34     35     45     44
      4     35     36     46     45
      4     36     37     47     46
      4     37     38     48     47
      4     38     39     49     48
  
CELL_DATA 36
SCALARS Gamma double
LOOKUP_TABLE default
 -0.16983547E+000
 -0.43158211E+001
 -0.37588562E+001
 -0.38076947E+001
 -0.39630860E+001
 -0.38217750E+001
 -0.38456670E+001
 -0.43977668E+001
 -0.22764939E+001
 -0.16983547E+000
 -0.43158211E+001
 -0.37588562E+001
 -0.38076947E+001
 -0.39630860E+001
 -0.38217750E+001
 -0.38456670E+001
 -0.43977668E+001
 -0.22764939E+001
 -0.20358333E-002
 -0.50129804E-001
 -0.43769850E-001
 -0.45116199E-001
 -0.47341231E-001
 -0.45934438E-001
 -0.45782683E-001
 -0.51804677E-001
 -0.27059359E-001
 -0.00000000E+000
 -0.00000000E+000
 -0.00000000E+000
 -0.00000000E+000
 -0.00000000E+000
 -0.00000000E+000
 -0.00000000E+000
 -0.00000000E+000
 -0.00000000E+000
POINT_DATA 50
VECTORS Uconv double
  0.00000000E+000  0.00000000E+000  0.00000000E+000
  0.00000000E+000  0.00000000E+000  0.00000000E+000
  0.00000000E+000  0.00000000E+000  0.00000000E+000
  0.00000000E+000  0.00000000E+000  0.00000000E+000
  0.00000000E+000  0.00000000E+000  0.00000000E+000
  0.00000000E+000  0.00000000E+000  0.00000000E+000
  0.00000000E+000  0.00000000E+000  0.00000000E+000
  0.00000000E+000  0.00000000E+000  0.00000000E+000
  0.00000000E+000  0.00000000E+000  0.00000000E+000
  0.00000000E+000  0.00000000E+000  0.00000000E+000
  0.00000000E+000  0.00000000E+000  0.00000000E+000
  0.00000000E+000  0.00000000E+000  0.00000000E+000
  0.00000000E+000  0.00000000E+000  0.00000000E+000
  0.00000000E+000  0.00000000E+000  0.00000000E+000
  0.00000000E+000  0.00000000E+000  0.00000000E+000
  0.00000000E+000  0.00000000E+000  0.00000000E+000
  0.00000000E+000  0.00000000E+000  0.00000000E+000
  0.00000000E+000  0.00000000E+000  0.00000000E+000
  0.00000000E+000  0.00000000E+000  0.00000000E+000
  0.00000000E+000  0.00000000E+000  0.00000000E+000
  0.17199958E+002 -0.60656131E-004 -0.18753722E-003
  0.17199902E+002  0.17201942E-004  0.15824265E-003
  0.17199815E+002  0.25214599E-004  0.17367711E-003
  0.17199829E+002  0.12215575E-004  0.10430881E-003
  0.17199658E+002  0.31068328E-004  0.25312650E-004
  0.17199654E+002  0.31094387E-004 -0.27952496E-004
  0.17199819E+002  0.12651247E-004 -0.11294342E-003
  0.17199841E+002  0.12716277E-004 -0.14897596E-003
  0.17199904E+002  0.10600196E-004 -0.71433700E-004
  0.17199878E+002 -0.66369278E-004  0.31197302E-003
  0.17199956E+002 -0.61921726E-004 -0.19175497E-003
  0.17199923E+002  0.34442664E-005  0.12390114E-003
  0.17199884E+002  0.11523841E-005  0.10224266E-003
  0.17199876E+002  0.49313869E-006  0.59004230E-004
  0.17199825E+002 -0.20303412E-005  0.24877717E-004
  0.17199822E+002 -0.22638446E-005 -0.27920873E-004
  0.17199869E+002  0.69517329E-006 -0.66037416E-004
  0.17199883E+002 -0.18551961E-005 -0.10897583E-003
  0.17199909E+002  0.80175868E-005 -0.68447993E-004
  0.17199872E+002 -0.70228681E-004  0.33374321E-003
  0.17199953E+002 -0.63202621E-004 -0.19606746E-003
  0.17199940E+002 -0.84580090E-005  0.87500724E-004
  0.17199952E+002 -0.23394339E-004  0.30386434E-004
  0.17199932E+002 -0.13831382E-004  0.66729639E-005
  0.17199994E+002 -0.38934107E-004  0.24160442E-004
  0.17199991E+002 -0.39132636E-004 -0.27589431E-004
  0.17199927E+002 -0.14367993E-004 -0.11447737E-004
  0.17199919E+002 -0.15155497E-004 -0.74427564E-004
  0.17199915E+002  0.48830077E-005 -0.67768468E-004
  0.17199865E+002 -0.73432261E-004  0.35535652E-003
