<?xml version="1.0"?>
<VTKFile type="PolyData" version="0.1" byte_order="LittleEndian">
  <PolyData>
    <Piece NumberOfPoints="     10" NumberOfVerts="  0" NumberOfLines="      9"
           NumberOfStrips="  0" NumberOfPolys="      0">
      <Points>
        <DataArray type="Float32" NumberOfComponents="3" format="ascii">
                       0.03705                       0.09302                      15.12059
                       0.90374                       2.26562                      15.12564
                       1.77035                       4.43826                      15.13083
                       2.63698                       6.61088                      15.13554
                       3.50364                       8.78350                      15.13950
                       4.36667                      10.95766                      15.14334
                       5.23376                      13.13007                      15.14404
                       6.10080                      15.30250                      15.14364
                       6.96770                      17.47495                      15.14197
                       7.83441                      19.64746                      15.13892
        </DataArray>
      </Points>
      <PointData>
        <DataArray type="Float32" Name="TranslationalVelocity" NumberOfComponents="3" format="ascii">
                      -0.17814                       0.06537                       0.00298
                      -4.09488                       1.62829                       0.07857
                      -8.00991                       3.19037                       0.14943
                     -11.92343                       4.75193                       0.20916
                     -15.83574                       6.31305                       0.25247
                     -19.74933                       7.86749                       0.27409
                     -23.65978                       9.42870                       0.27192
                     -27.56998                      10.98962                       0.24631
                     -31.48028                      12.55018                       0.19809
                     -35.39100                      14.11036                       0.12921
        </DataArray>
        <DataArray type="Float32" Name="RotationalVelocity" NumberOfComponents="3" format="ascii">
                       0.03632                       0.00411                       1.80348
                       0.03525                       0.00225                       1.80271
                       0.03186                       0.00115                       1.80201
                       0.02643                       0.00084                       1.80143
                       0.01932                       0.00117                       1.80095
                       0.00185                       0.00306                       1.80032
                      -0.00753                       0.00425                       1.80018
                      -0.01667                       0.00533                       1.80014
                      -0.02548                       0.00626                       1.80021
                      -0.03312                       0.00673                       1.80039
        </DataArray>
        <DataArray type="Float32" Name="TranslationalAcceleration" NumberOfComponents="3" format="ascii">
                       0.05770                       0.02007                      -0.18690
                      -0.41654                      -1.06056                      -1.18061
                      -0.77214                      -1.84533                      -2.22542
                      -1.12222                      -2.63411                      -3.20849
                      -1.46289                      -3.43015                      -4.03047
                       0.71922                       1.97918                      -4.75651
                       0.42486                       1.14146                      -4.64280
                       0.14931                       0.28695                      -4.57598
                      -0.10964                      -0.52541                      -4.32885
                      -0.34984                      -1.33479                      -3.59910
        </DataArray>
        <DataArray type="Float32" Name="OrientationX" NumberOfComponents="3" format="ascii">
                      -0.00095                       0.00017                       1.00000
                      -0.00108                      -0.00004                       1.00000
                      -0.00117                      -0.00025                       1.00000
                      -0.00119                      -0.00032                       1.00000
                      -0.00115                      -0.00035                       1.00000
                      -0.00014                      -0.00011                       1.00000
                      -0.00016                      -0.00018                       1.00000
                      -0.00016                      -0.00018                       1.00000
                      -0.00013                      -0.00014                       1.00000
                      -0.00036                      -0.00065                       1.00000
        </DataArray>
        <DataArray type="Float32" Name="OrientationY" NumberOfComponents="3" format="ascii">
                       0.92846                      -0.37144                       0.00094
                       0.92845                      -0.37145                       0.00098
                       0.92845                      -0.37145                       0.00100
                       0.92844                      -0.37148                       0.00098
                       0.92843                      -0.37151                       0.00094
                       0.92785                      -0.37296                       0.00009
                       0.92793                      -0.37276                       0.00008
                       0.92805                      -0.37245                       0.00008
                       0.92821                      -0.37206                       0.00007
                       0.92819                      -0.37210                       0.00010
        </DataArray>
        <DataArray type="Float32" Name="OrientationZ" NumberOfComponents="3" format="ascii">
                       0.37144                       0.92846                       0.00020
                       0.37145                       0.92845                       0.00044
                       0.37145                       0.92845                       0.00066
                       0.37148                       0.92844                       0.00074
                       0.37151                       0.92843                       0.00075
                       0.37296                       0.92785                       0.00016
                       0.37276                       0.92793                       0.00023
                       0.37245                       0.92805                       0.00023
                       0.37206                       0.92821                       0.00018
                       0.37210                       0.92819                       0.00073
        </DataArray>
      </PointData>
      <Lines>
        <DataArray type="Int32" Name="connectivity" format="ascii">
      0      1
      1      2
      2      3
      3      4
      4      5
      5      6
      6      7
      7      8
      8      9
        </DataArray>
        <DataArray type="Int32" Name="offsets" format="ascii">
      2
      4
      6
      8
     10
     12
     14
     16
     18
        </DataArray>
      </Lines>
    </Piece>
  </PolyData>
</VTKFile>
