# vtk DataFile Version 2.0
BldPointCP.BldA
ASCII
 
DATASET POLYDATA
POINTS 9 double
 -0.10767900E+002 -0.32479585E+001  0.10654496E+003
 -0.26835209E+002 -0.80922793E+001  0.94975075E+002
 -0.39463465E+002 -0.11986999E+002  0.82703381E+002
 -0.47888626E+002 -0.14640378E+002  0.70347754E+002
 -0.50620575E+002 -0.15518603E+002  0.58343633E+002
 -0.47891298E+002 -0.14667831E+002  0.46345433E+002
 -0.39452120E+002 -0.11994571E+002  0.33987912E+002
 -0.26890207E+002 -0.80908277E+001  0.21631222E+002
 -0.10980178E+002 -0.32888259E+001  0.98272420E+001
  
POINT_DATA 9
SCALARS Gamma_LL double
LOOKUP_TABLE default
 -0.43611406E+001
 -0.15822917E+003
 -0.14354461E+003
 -0.11008348E+003
 -0.90603113E+002
 -0.82493351E+002
 -0.98867509E+002
 -0.13870013E+003
 -0.60763481E+002
VECTORS Vind_CP double
  0.10533160E+000 -0.27760767E+000  0.10009983E+000
 -0.60326454E+000  0.20105132E-001  0.58422541E+000
 -0.88058078E+000 -0.39641378E-001  0.61881481E+000
 -0.10702186E+001 -0.11918120E+000  0.35103848E+000
 -0.10012276E+001 -0.18164889E+000  0.28984868E-001
 -0.87401874E+000 -0.10846204E+000 -0.21445605E+000
 -0.67662007E+000 -0.42017876E-001 -0.42922204E+000
 -0.59120060E+000 -0.28332687E-001 -0.55087951E+000
 -0.20341360E+000 -0.35837633E-002 -0.76385306E-001
VECTORS Vtot_CP double
  0.89244821E+001  0.19369680E+002 -0.15357966E+001
  0.73822205E+000  0.49735591E+002 -0.33854613E+001
 -0.70665804E+001  0.73702772E+002 -0.37753617E+001
 -0.14041270E+002  0.89861104E+002 -0.30883855E+001
 -0.16567107E+002  0.95222846E+002 -0.29408205E+001
 -0.14260523E+002  0.89830469E+002 -0.28775902E+001
 -0.75054730E+001  0.73328344E+002 -0.20940571E+001
  0.12602043E+001  0.49428686E+002 -0.10402419E+001
  0.10988224E+002  0.20044371E+002 -0.99122773E-001
VECTORS Vstr_CP double
  0.83808495E+001 -0.19647287E+002  0.16358965E+001
  0.15858513E+002 -0.49715486E+002  0.39696867E+001
  0.23386000E+002 -0.73742413E+002  0.43941766E+001
  0.30171052E+002 -0.89980285E+002  0.34394240E+001
  0.32765879E+002 -0.95404495E+002  0.29698054E+001
  0.30586504E+002 -0.89938932E+002  0.26631342E+001
  0.24028853E+002 -0.73370362E+002  0.16648351E+001
  0.15348595E+002 -0.49457019E+002  0.48936243E+000
  0.60083621E+001 -0.20047955E+002  0.22737467E-001
VECTORS Vwnd_CP double
  0.17200000E+002  0.00000000E+000  0.00000000E+000
  0.17200000E+002  0.00000000E+000  0.00000000E+000
  0.17200000E+002  0.00000000E+000  0.00000000E+000
  0.17200000E+002  0.00000000E+000  0.00000000E+000
  0.17200000E+002  0.00000000E+000  0.00000000E+000
  0.17200000E+002  0.00000000E+000  0.00000000E+000
  0.17200000E+002  0.00000000E+000  0.00000000E+000
  0.17200000E+002  0.00000000E+000  0.00000000E+000
  0.17200000E+002  0.00000000E+000  0.00000000E+000
VECTORS Tangent double
 -0.88545429E+000  0.46454876E+000 -0.12850796E-001
 -0.29290200E+000  0.95614207E+000 -0.87296165E-003
 -0.28878619E+000  0.95738925E+000 -0.28910341E-002
 -0.27355689E+000  0.96184296E+000 -0.49757049E-002
 -0.26731612E+000  0.96360889E+000  0.77076105E-004
 -0.26878897E+000  0.96319561E+000  0.25875577E-002
 -0.27378860E+000  0.96178831E+000  0.17484629E-002
 -0.27897831E+000  0.96029652E+000  0.13042072E-002
 -0.28219080E+000  0.95935789E+000  0.88769556E-003
VECTORS Normal double
 -0.30068591E+000 -0.55160059E+000  0.77802621E+000
 -0.61053245E+000 -0.18632608E+000  0.76976147E+000
 -0.69097917E+000 -0.20633439E+000  0.69280150E+000
 -0.86565687E+000 -0.24393908E+000  0.43718635E+000
 -0.96360772E+000 -0.26731591E+000  0.15379963E-002
 -0.86591468E+000 -0.24046353E+000 -0.43859896E+000
 -0.69393429E+000 -0.19628021E+000 -0.69276929E+000
 -0.62171029E+000 -0.17957930E+000 -0.76238283E+000
 -0.49114397E+000 -0.14367281E+000 -0.85914826E+000
VECTORS Orth double
 -0.35434261E+000 -0.69277070E+000 -0.62810037E+000
 -0.73583867E+000 -0.22599765E+000 -0.63833104E+000
 -0.66268419E+000 -0.20206915E+000 -0.72112255E+000
 -0.41929084E+000 -0.12390259E+000 -0.89935718E+000
 -0.15026305E-002 -0.33686006E-003 -0.99999881E+000
  0.42183439E+000  0.12013117E+000 -0.89867917E+000
  0.66595421E+000  0.19088565E+000 -0.72115717E+000
  0.73187937E+000  0.21349911E+000 -0.64712496E+000
  0.82410312E+000  0.24287972E+000 -0.51172599E+000
