# vtk DataFile Version 2.0
BldPointCP.BldB
ASCII
 
DATASET POLYDATA
POINTS 9 double
  0.51918095E+001  0.10223937E+002  0.10634913E+003
  0.12716374E+002  0.25064188E+002  0.94567937E+002
  0.18725383E+002  0.36906109E+002  0.82333977E+002
  0.22791707E+002  0.44919367E+002  0.70078218E+002
  0.24104333E+002  0.47506957E+002  0.58092075E+002
  0.22789868E+002  0.44916056E+002  0.46106374E+002
  0.18723233E+002  0.36901941E+002  0.33850509E+002
  0.12714727E+002  0.25060777E+002  0.21613536E+002
  0.51860456E+001  0.10221567E+002  0.98313283E+001
  
POINT_DATA 9
SCALARS Gamma_LL double
LOOKUP_TABLE default
  0.32256505E+001
  0.18979344E+001
  0.12865983E+001
  0.15436262E+001
  0.18072758E+001
  0.16817938E+001
  0.15339126E+001
  0.20388992E+001
  0.20787311E+001
VECTORS Vind_CP double
 -0.18997097E-002 -0.14078769E-002 -0.75905955E-002
 -0.14630172E-002 -0.21611736E-002 -0.32654798E-002
 -0.84367825E-003 -0.15878974E-002 -0.97814144E-003
 -0.18517425E-002 -0.42995962E-002 -0.14093789E-002
 -0.30012678E-002 -0.70548859E-002  0.55903181E-006
 -0.21773842E-002 -0.50363867E-002  0.18040978E-002
 -0.13012689E-002 -0.27384522E-002  0.19587244E-002
 -0.19998813E-002 -0.36130041E-002  0.41219329E-002
 -0.19985933E-002 -0.16697741E-002  0.48012504E-002
VECTORS Vtot_CP double
  0.35143567E+002 -0.95119006E+001  0.40818736E+000
  0.62014019E+002 -0.23718344E+002  0.10430848E+000
  0.83142557E+002 -0.35085066E+002 -0.51916357E+000
  0.97724796E+002 -0.42020953E+002 -0.31863744E+000
  0.10258780E+003 -0.43981780E+002  0.36813377E-003
  0.97885612E+002 -0.41725608E+002  0.26061199E+000
  0.83357525E+002 -0.34602426E+002  0.43889896E+000
  0.62193519E+002 -0.23370226E+002  0.50669607E-001
  0.35623906E+002 -0.93587469E+001 -0.19868308E+000
VECTORS Vstr_CP double
 -0.17945467E+002  0.95104927E+001 -0.41577796E+000
 -0.44815482E+002  0.23716183E+002 -0.10757396E+000
 -0.65943401E+002  0.35083478E+002  0.51818543E+000
 -0.80526647E+002  0.42016653E+002  0.31722806E+000
 -0.85390799E+002  0.43974725E+002 -0.36757473E-003
 -0.80687790E+002  0.41720572E+002 -0.25880789E+000
 -0.66158826E+002  0.34599688E+002 -0.43694023E+000
 -0.44995519E+002  0.23366613E+002 -0.46547674E-001
 -0.18425905E+002  0.93570771E+001  0.20348433E+000
VECTORS Vwnd_CP double
  0.17200000E+002  0.00000000E+000  0.00000000E+000
  0.17200000E+002  0.00000000E+000  0.00000000E+000
  0.17200000E+002  0.00000000E+000  0.00000000E+000
  0.17200000E+002  0.00000000E+000  0.00000000E+000
  0.17200000E+002  0.00000000E+000  0.00000000E+000
  0.17200000E+002  0.00000000E+000  0.00000000E+000
  0.17200000E+002  0.00000000E+000  0.00000000E+000
  0.17200000E+002  0.00000000E+000  0.00000000E+000
  0.17200000E+002  0.00000000E+000  0.00000000E+000
VECTORS Tangent double
  0.74220162E+000 -0.67017665E+000  0.11898001E-003
  0.89148279E+000 -0.45305454E+000  0.16700767E-003
  0.89200320E+000 -0.45202904E+000  0.20537487E-003
  0.89194818E+000 -0.45213763E+000  0.83669573E-004
  0.89184056E+000 -0.45234989E+000 -0.47256637E-004
  0.89204503E+000 -0.45194649E+000 -0.17800552E-003
  0.89198031E+000 -0.45207424E+000 -0.71573357E-004
  0.89171975E+000 -0.45258799E+000  0.30538093E-004
  0.89172957E+000 -0.45256849E+000  0.37206884E-003
VECTORS Normal double
  0.35219810E+000  0.39020043E+000  0.85070566E+000
  0.29181226E+000  0.57448563E+000  0.76472993E+000
  0.32076111E+000  0.63328804E+000  0.70431425E+000
  0.40515709E+000  0.79935008E+000  0.44371971E+000
  0.45234987E+000  0.89184054E+000 -0.23175073E-003
  0.40491641E+000  0.79939260E+000 -0.44386279E+000
  0.32089663E+000  0.63326742E+000 -0.70427106E+000
  0.29173414E+000  0.57474293E+000 -0.76456638E+000
  0.23198516E+000  0.45639152E+000 -0.85900504E+000
VECTORS Orth double
  0.57016950E+000  0.63135322E+000 -0.52564233E+000
  0.34656031E+000  0.68169483E+000 -0.64435092E+000
  0.31850056E+000  0.62818469E+000 -0.70988829E+000
  0.20068926E+000  0.39574109E+000 -0.89616561E+000
 -0.14697780E-003 -0.18530817E-003 -0.99999997E+000
 -0.20074453E+000 -0.39587352E+000 -0.89609475E+000
 -0.31842813E+000 -0.62817295E+000 -0.70993117E+000
 -0.34601601E+000 -0.68178785E+000 -0.64454499E+000
 -0.38858881E+000 -0.76608651E+000 -0.51196699E+000
