<?xml version="1.0"?>
<VTKFile type="PolyData" version="0.1" byte_order="LittleEndian">
  <PolyData>
    <Piece NumberOfPoints="    165" NumberOfVerts="  0" NumberOfLines="      0"
           NumberOfStrips="  0" NumberOfPolys="      0">
      <Points>
        <DataArray type="Float32" NumberOfComponents="3" format="ascii">
                       0.02215                       0.00380                     113.18210
                      -6.92675                      -0.49921                     109.51882
                     -13.39601                      -0.96774                     105.85370
                     -19.38582                      -1.40205                     102.18726
                     -21.08937                      -1.52570                     101.08725
                     -24.89591                      -1.80226                      98.51939
                     -29.92432                      -2.16796                      94.84741
                     -34.47148                      -2.49909                      91.17248
                     -38.53852                      -2.79561                      87.49644
                     -42.12635                      -3.05748                      83.82049
                     -45.23531                      -3.28462                      80.14502
                     -47.86592                      -3.47703                      76.47035
                     -50.01833                      -3.63471                      72.79642
                     -51.69252                      -3.75760                      69.12309
                     -52.88895                      -3.84564                      65.45030
                     -53.60744                      -3.89872                      61.77777
                     -53.84711                      -3.91672                      58.10520
                     -53.60765                      -3.89960                      54.43262
                     -52.88913                      -3.84734                      50.76011
                     -51.69241                      -3.75999                      47.08745
                     -50.01800                      -3.63763                      43.41426
                     -47.86589                      -3.48028                      39.74026
                     -45.23640                      -3.28795                      36.06493
                     -42.12909                      -3.06063                      32.38828
                     -38.54285                      -2.79834                      28.71108
                     -34.47686                      -2.50119                      25.03424
                     -29.92984                      -2.16936                      21.35956
                     -24.90136                      -1.80315                      17.68817
                     -21.09591                      -1.52652                      15.11901
                     -19.39334                      -1.40293                      14.01771
                     -13.40736                      -0.96917                      10.34588
                      -6.94299                      -0.50164                       6.67311
                       0.00014                       0.00003                       3.00009
                       0.02215                       0.00380                     113.18210
                       3.05398                       6.27076                     109.50774
                       5.87582                      12.10265                     105.82837
                       8.48897                      17.50080                     102.14764
                       9.23257                      19.03637                     101.04443
                      10.89671                      22.47212                      98.47661
                      13.09971                      27.01878                      94.81712
                      15.09456                      31.13409                      91.15762
                      16.87894                      34.81367                      87.49229
                      18.45200                      38.05644                      83.82085
                      19.81400                      40.86356                      80.14572
                      20.96536                      43.23645                      76.46910
                      21.90651                      45.17627                      72.79228
                      22.63780                      46.68381                      69.11595
                      23.15948                      47.75955                      65.44039
                      23.47193                      48.40409                      61.76569
                      23.57555                      48.61814                      58.09163
                      23.47051                      48.40193                      54.41772
                      23.15676                      47.75526                      50.74347
                      22.63398                      46.67747                      47.06860
                      21.90191                      45.16805                      43.39307
                      20.96034                      43.22663                      39.71698
                      19.80888                      40.85237                      36.04098
                      18.44708                      38.04433                      32.36617
                      16.87457                      34.80165                      28.69398
                      15.09108                      31.12361                      25.02610
                      13.09720                      27.01131                      21.36205
                      10.89437                      22.46775                      17.69795
                       9.22887                      19.03237                      15.13012
                       8.48403                      17.49602                      14.02847
                       5.86562                      12.09521                      10.35411
                       3.03798                       6.26354                       6.67729
                       0.00014                       0.00003                       3.00009
                       0.02215                       0.00380                     113.18210
                       3.92267                      -5.76300                     109.50831
                       7.55321                     -11.12976                     105.83025
                      10.91513                     -16.09732                     102.15102
                      11.87167                     -17.51025                     101.04800
                      14.01175                     -20.67081                      98.47940
                      16.84385                     -24.85219                      94.81728
                      19.40806                     -28.63669                      91.15551
                      21.70203                     -32.02108                      87.48937
                      23.72489                     -35.00444                      83.81837
                      25.47684                     -37.58752                      80.14429
                      26.95826                     -39.77127                      76.46873
                      28.16951                     -41.55645                      72.79272
                      29.11091                     -42.94372                      69.11694
                      29.78273                     -43.93359                      65.44170
                      30.18534                     -44.52670                      61.76719
                      30.31920                     -44.72367                      58.09322
                      30.18446                     -44.52473                      54.41939
                      29.78104                     -43.92968                      50.74525
                      29.10856                     -42.93789                      47.07059
                      28.16672                     -41.54881                      43.39548
                      26.95525                     -39.76200                      39.72015
                      25.47371                     -37.57680                      36.04525
                      23.72175                     -34.99266                      32.37162
                      21.69912                     -32.00925                      28.70016
                      19.40572                     -28.62641                      25.03174
                      16.84226                     -24.84512                      21.36558
                      14.01010                     -20.66735                      17.69882
                      11.86835                     -17.50791                      15.12992
                      10.91037                     -16.09467                      14.02824
                       7.54260                     -11.12625                      10.35442
                       3.90613                      -5.76149                       6.67800
                       0.00014                       0.00003                       3.00009
                      -0.09945                      -0.00708                      15.12041
                      -2.10936                      -0.15227                      15.12059
                      -4.21901                      -0.30477                      15.12097
                      -6.32865                      -0.45735                      15.12139
                      -8.43828                      -0.61000                      15.12172
                     -10.54790                      -0.76271                      15.12185
                     -12.65752                      -0.91546                      15.12174
                     -14.76712                      -1.06824                      15.12134
                     -16.87672                      -1.22102                      15.12067
                     -18.98632                      -1.37378                      15.11984
                     -21.09591                      -1.52652                      15.11901
                       0.04393                       0.09009                      15.12041
                       0.92322                       1.90332                      15.12206
                       1.84612                       3.80654                      15.12376
                       2.76901                       5.70977                      15.12537
                       3.69188                       7.61301                      15.12684
                       4.61474                       9.51624                      15.12813
                       5.53758                      11.41948                      15.12921
                       6.46042                      13.32272                      15.13003
                       7.38324                      15.22595                      15.13055
                       8.30606                      17.12916                      15.13063
                       9.22887                      19.03237                      15.13012
                       0.05639                      -0.08266                      15.12041
                       1.18704                      -1.75074                      15.12207
                       2.37383                      -3.50158                      15.12376
                       3.56063                      -5.25240                      15.12536
                       4.74745                      -7.00321                      15.12679
                       5.93427                      -8.75401                      15.12803
                       7.12110                     -10.50480                      15.12904
                       8.30793                     -12.25558                      15.12978
                       9.49475                     -14.00636                      15.13023
                      10.68156                     -15.75713                      15.13030
                      11.86835                     -17.50791                      15.12992
                      -0.09342                      -0.00592                     101.06326
                      -2.10328                      -0.15121                     101.06396
                      -4.21288                      -0.30379                     101.06523
                      -6.32247                      -0.45644                     101.06699
                      -8.43206                      -0.60914                     101.06919
                     -10.54163                      -0.76188                     101.07178
                     -12.65119                      -0.91465                     101.07472
                     -14.76075                      -1.06743                     101.07793
                     -16.87029                      -1.22021                     101.08128
                     -18.97983                      -1.37297                     101.08450
                     -21.08937                      -1.52570                     101.08725
                       0.04996                       0.09125                     101.06326
                       0.92915                       1.90469                     101.06271
                       1.85191                       3.80815                     101.06190
                       2.77461                       5.71164                     101.06073
                       3.69726                       7.61515                     101.05907
                       4.61987                       9.51868                     101.05692
                       5.54245                      11.42221                     101.05431
                       6.46500                      13.32576                     101.05139
                       7.38754                      15.22930                     101.04844
                       8.31006                      17.13283                     101.04592
                       9.23257                      19.03637                     101.04443
                       0.06243                      -0.08150                     101.06326
                       1.19314                      -1.74969                     101.06290
                       2.37988                      -3.50073                     101.06233
                       3.56653                      -5.25182                     101.06143
                       4.75311                      -7.00295                     101.06011
                       5.93964                      -8.75412                     101.05836
                       7.12612                     -10.50531                     101.05621
                       8.31256                     -12.25653                     101.05380
                       9.49896                     -14.00776                     101.05138
                      10.68533                     -15.75900                     101.04929
                      11.87167                     -17.51025                     101.04800
        </DataArray>
      </Points>
      <PointData>
        <DataArray type="Float32" Name="TranslationalVelocity" NumberOfComponents="3" format="ascii">
                       1.20357                       0.21525                      -0.02518
                       1.84762                     -12.39384                       0.45680
                       2.43143                     -24.14778                       0.90676
                       2.97500                     -35.05716                       1.29443
                       3.13016                     -38.16652                       1.39978
                       3.51414                     -45.12444                       1.57593
                       4.14108                     -54.32836                       1.63144
                       4.83723                     -62.66715                       1.52060
                       5.55131                     -70.14260                       1.33386
                       6.22791                     -76.75475                       1.14626
                       6.83157                     -82.50101                       0.99349
                       7.33682                     -87.37937                       0.89025
                       7.73509                     -91.38646                       0.83183
                       8.02709                     -94.51810                       0.80661
                       8.20923                     -96.77042                       0.80438
                       8.29506                     -98.13706                       0.81041
                       8.31215                     -98.61127                       0.81481
                       8.27246                     -98.18906                       0.81753
                       8.17212                     -96.86881                       0.82022
                       7.98297                     -94.65311                       0.81523
                       7.67820                     -91.54621                       0.78424
                       7.24149                     -87.55134                       0.70447
                       6.66352                     -82.67274                       0.55208
                       5.97380                     -76.91393                       0.33159
                       5.23806                     -70.27723                       0.09399
                       4.51651                     -62.76867                      -0.09081
                       3.84811                     -54.39679                      -0.15554
                       3.21514                     -45.17359                      -0.09721
                       2.75080                     -38.21903                      -0.03412
                       2.53640                     -35.11671                      -0.01574
                       1.76487                     -24.24321                       0.01518
                       0.91516                     -12.54297                       0.01169
                       0.00270                       0.00077                       0.00222
                       1.20357                       0.21525                      -0.02518
                     -10.38806                       5.72739                      -0.24068
                     -21.22625                      10.78472                      -0.58252
                     -31.23062                      15.46423                      -0.85991
                     -34.05792                      16.81523                      -0.89492
                     -40.30521                      19.96819                      -0.76129
                     -48.42559                      24.37850                      -0.22005
                     -55.67559                      28.49068                       0.40236
                     -62.13987                      32.11540                       0.84597
                     -67.88815                      35.12789                       0.99781
                     -72.94952                      37.50834                       0.89782
                     -77.31172                      39.32307                       0.66513
                     -80.94114                      40.67133                       0.41321
                     -83.80532                      41.63702                       0.20761
                     -85.88185                      42.27163                       0.06916
                     -87.15408                      42.60812                      -0.00747
                     -87.60829                      42.67045                      -0.04324
                     -87.23735                      42.46594                      -0.06865
                     -86.04135                      41.98629                      -0.11459
                     -84.02804                      41.20766                      -0.20354
                     -81.20885                      40.10266                      -0.34606
                     -77.60284                      38.63052                      -0.53157
                     -73.24179                      36.72200                      -0.70941
                     -68.15744                      34.30648                      -0.79801
                     -62.36217                      31.35170                      -0.72694
                     -55.83926                      27.88562                      -0.48400
                     -48.54934                      23.99357                      -0.14648
                     -40.45649                      19.76751                       0.16431
                     -34.30432                      16.64200                       0.31052
                     -31.54511                      15.26049                       0.35121
                     -21.82059                      10.46544                       0.39474
                     -11.28854                       5.39429                       0.24922
                       0.00270                       0.00077                       0.00222
                       1.20357                       0.21525                      -0.02518
                      11.33101                       7.13718                      -0.19011
                      20.69679                      13.63680                      -0.47465
                      29.38721                      19.66504                      -0.71117
                      31.87647                      21.36759                      -0.74350
                      37.52354                      25.07998                      -0.64134
                      45.14561                      29.81278                      -0.19865
                      52.15145                      34.00398                       0.32705
                      58.44341                      37.79063                       0.72084
                      63.94792                      41.26924                       0.88131
                      68.63805                      44.46217                       0.83074
                      72.52623                      47.32874                       0.65727
                      75.64520                      49.79871                       0.45168
                      78.02851                      51.80460                       0.27357
                      79.70014                      53.29716                       0.14803
                      80.68008                      54.23922                       0.07617
                      80.98620                      54.60344                       0.04148
                      80.62617                      54.38065                       0.01605
                      79.59731                      53.57888                      -0.02876
                      77.88477                      52.22466                      -0.11141
                      75.47009                      50.35190                      -0.23483
                      72.32883                      48.00288                      -0.38031
                      68.42590                      45.23217                      -0.49840
                      63.73409                      42.08137                      -0.52704
                      58.25063                      38.55412                      -0.42838
                      52.00115                      34.61111                      -0.21767
                      45.03280                      30.18555                       0.02792
                      37.38199                      25.23034                       0.22940
                      31.62449                      21.44291                       0.32826
                      29.05413                      19.74386                       0.36328
                      20.04658                      13.73176                       0.41522
                      10.37576                       7.14491                       0.28125
                       0.00270                       0.00077                       0.00222
                       0.01242                      -0.17713                       0.00635
                       0.27269                      -3.80422                       0.01035
                       0.54647                      -7.61660                       0.02044
                       0.82080                     -11.43366                       0.03214
                       1.09560                     -15.25465                       0.04176
                       1.37083                     -19.07878                       0.04648
                       1.64641                     -22.90529                       0.04434
                       1.92229                     -26.73338                       0.03429
                       2.19841                     -30.56225                       0.01622
                       2.47458                     -34.39107                      -0.00763
                       2.75080                     -38.21903                      -0.03412
                      -0.16261                       0.08111                       0.00635
                      -3.43046                       1.66678                       0.09481
                      -6.86041                       3.33104                       0.18388
                     -10.29034                       4.99520                       0.26353
                     -13.72030                       6.65927                       0.32911
                     -17.15037                       8.32326                       0.37716
                     -20.58058                       9.98718                       0.40538
                     -24.01101                      11.65103                       0.41272
                     -27.44172                      13.31483                       0.39930
                     -30.87279                      14.97845                       0.36490
                     -34.30432                      16.64200                       0.31052
                       0.14855                       0.10357                       0.00635
                       3.15693                       2.14255                       0.09380
                       6.31650                       4.28409                       0.18178
                       9.47772                       6.42684                       0.26053
                      12.64025                       8.57061                       0.32555
                      15.80377                      10.71518                       0.37356
                      18.96796                      12.86036                       0.40249
                      22.13248                      15.00593                       0.41155
                      25.29699                      17.15168                       0.40121
                      28.46110                      19.29742                       0.37264
                      31.62449                      21.44291                       0.32826
                       0.37495                      -0.10910                       0.00664
                       0.63701                      -3.74173                       0.05378
                       0.91257                      -7.55858                       0.13852
                       1.18862                     -11.37889                       0.25356
                       1.46511                     -15.20207                       0.39333
                       1.74199                     -19.02749                       0.55235
                       2.01922                     -22.85455                       0.72488
                       2.29674                     -26.68262                       0.90454
                       2.57450                     -30.51109                       1.08393
                       2.85231                     -34.33926                       1.25295
                       3.13016                     -38.16652                       1.39978
                       0.19992                       0.14914                       0.00664
                      -3.07376                       1.74258                      -0.07011
                      -6.51160                       3.41576                      -0.15664
                      -9.95095                       5.08949                      -0.25094
                     -13.39161                       6.76367                      -0.35332
                     -16.83342                       8.43822                      -0.46227
                     -20.27628                      10.11308                      -0.57427
                     -23.72012                      11.78822                      -0.68355
                     -27.16495                      13.46364                      -0.78192
                     -30.61084                      15.13927                      -0.85725
                     -34.05792                      16.81523                      -0.89492
                       0.51108                       0.17160                       0.00664
                       3.52376                       2.20782                      -0.05268
                       6.68282                       4.34274                      -0.12069
                       9.83908                       6.47558                      -0.19629
                      12.99287                       8.60667                      -0.27990