<?xml version="1.0"?>
<VTKFile type="PolyData" version="0.1" byte_order="LittleEndian">
  <PolyData>
    <Piece NumberOfPoints="     10" NumberOfVerts="  0" NumberOfLines="      9"
           NumberOfStrips="  0" NumberOfPolys="      0">
      <Points>
        <DataArray type="Float32" NumberOfComponents="3" format="ascii">
                       0.08660                      -0.05000                      25.03658
                       3.40320                      -1.96484                      25.03657
                       6.71979                      -3.87967                      25.03656
                      10.03639                      -5.79451                      25.03654
                      13.35298                      -7.70935                      25.03653
                      16.66957                      -9.62418                      25.03652
                      19.98617                     -11.53902                      25.03651
                      23.30276                     -13.45386                      25.03650
                      26.61936                     -15.36869                      25.03648
                      29.93595                     -17.28353                      25.03647
        </DataArray>
      </Points>
      <PointData>
        <DataArray type="Float32" Name="TranslationalVelocity" NumberOfComponents="3" format="ascii">
                       0.09006                       0.15599                       0.00000
                       3.53902                       6.12977                       0.00000
                       6.98799                      12.10355                       0.00000
                      10.43695                      18.07733                       0.00000
                      13.88592                      24.05112                       0.00000
                      17.33488                      30.02490                       0.00000
                      20.78385                      35.99868                       0.00000
                      24.23281                      41.97246                       0.00000
                      27.68178                      47.94625                       0.00000
                      31.13074                      53.92003                       0.00000
        </DataArray>
        <DataArray type="Float32" Name="RotationalVelocity" NumberOfComponents="3" format="ascii">
                       0.00000                       0.00000                       1.80118
                       0.00000                       0.00000                       1.80118
                       0.00000                       0.00000                       1.80118
                       0.00000                       0.00000                       1.80118
                       0.00000                       0.00000                       1.80118
                       0.00000                       0.00000                       1.80118
                       0.00000                       0.00000                       1.80118
                       0.00000                       0.00000                       1.80118
                       0.00000                       0.00000                       1.80118
                       0.00000                       0.00000                       1.80118
        </DataArray>
        <DataArray type="Float32" Name="TranslationalAcceleration" NumberOfComponents="3" format="ascii">
                       0.00000                       0.00000                       0.00000
                       8.38312                      -4.83999                       0.00000
                      -2.37674                       1.37221                       0.00000
                       6.28734                      -3.63000                       0.00000
                      -4.47252                       2.58221                       0.00000
                       4.19156                      -2.42000                       0.00000
                      -6.56830                       3.79221                       0.00000
                       2.09578                      -1.21000                       0.00000
                       3.23342                      -1.86682                       0.00000
                       0.00000                      -0.00000                       0.00000
        </DataArray>
        <DataArray type="Float32" Name="OrientationX" NumberOfComponents="3" format="ascii">
                       0.00000                      -0.00000                       1.00000
                       0.00000                      -0.00000                       1.00000
                       0.00000                      -0.00000                       1.00000
                       0.00000                      -0.00000                       1.00000
                       0.00000                      -0.00000                       1.00000
                       0.00000                      -0.00000                       1.00000
                       0.00000                      -0.00000                       1.00000
                       0.00000                      -0.00000                       1.00000
                       0.00000                      -0.00000                       1.00000
                       0.00000                      -0.00000                       1.00000
        </DataArray>
        <DataArray type="Float32" Name="OrientationY" NumberOfComponents="3" format="ascii">
                      -0.50000                      -0.86603                       0.00000
                      -0.50000                      -0.86603                       0.00000
                      -0.50000                      -0.86603                       0.00000
                      -0.50000                      -0.86603                       0.00000
                      -0.50000                      -0.86603                       0.00000
                      -0.50000                      -0.86603                       0.00000
                      -0.50000                      -0.86603                       0.00000
                      -0.50000                      -0.86603                       0.00000
                      -0.50000                      -0.86603                      -0.00000
                      -0.50000                      -0.86603                      -0.00000
        </DataArray>
        <DataArray type="Float32" Name="OrientationZ" NumberOfComponents="3" format="ascii">
                       0.86603                      -0.50000                      -0.00000
                       0.86603                      -0.50000                      -0.00000
                       0.86603                      -0.50000                      -0.00000
                       0.86603                      -0.50000                      -0.00000
                       0.86603                      -0.50000                      -0.00000
                       0.86603                      -0.50000                      -0.00000
                       0.86603                      -0.50000                      -0.00000
                       0.86603                      -0.50000                      -0.00000
                       0.86603                      -0.50000                      -0.00000
                       0.86603                      -0.50000                      -0.00000
        </DataArray>
      </PointData>
      <Lines>
        <DataArray type="Int32" Name="connectivity" format="ascii">
      0      1
      1      2
      2      3
      3      4
      4      5
      5      6
      6      7
      7      8
      8      9
        </DataArray>
        <DataArray type="Int32" Name="offsets" format="ascii">
      2
      4
      6
      8
     10
     12
     14
     16
     18
        </DataArray>
      </Lines>
    </Piece>
  </PolyData>
</VTKFile>
