# vtk DataFile Version 2.0

ASCII
 
DATASET POLYDATA
POINTS 20 double
  0.16653345E-014 -0.99920072E-015  0.11318291E+003
  0.19122122E+002 -0.11040162E+002  0.10094036E+003
  0.31146593E+002 -0.17982494E+002  0.88697816E+002
  0.41153770E+002 -0.23760140E+002  0.76455271E+002
  0.46150506E+002 -0.26645007E+002  0.64212725E+002
  0.46150506E+002 -0.26645007E+002  0.51970180E+002
  0.41153770E+002 -0.23760140E+002  0.39727634E+002
  0.31146640E+002 -0.17982521E+002  0.27485089E+002
  0.19122122E+002 -0.11040162E+002  0.15242543E+002
  0.14988011E-013 -0.15321078E-013  0.29999979E+001
  0.22500000E+001 -0.38971143E+001  0.11318291E+003
  0.16884320E+002 -0.14916149E+002  0.10094036E+003
  0.29604104E+002 -0.20654163E+002  0.88697816E+002
  0.39927610E+002 -0.25883913E+002  0.76455271E+002
  0.45022912E+002 -0.28598056E+002  0.64212725E+002
  0.45000851E+002 -0.28636268E+002  0.51970180E+002
  0.39854270E+002 -0.26010942E+002  0.39727634E+002
  0.29434105E+002 -0.20948718E+002  0.27485089E+002
  0.16872122E+002 -0.14937277E+002  0.15242543E+002
 -0.22500000E+001 -0.38971143E+001  0.29999979E+001
  
POLYGONS 9 45
      4      0      1     11     10
      4      1      2     12     11
      4      2      3     13     12
      4      3      4     14     13
      4      4      5     15     14
      4      5      6     16     15
      4      6      7     17     16
      4      7      8     18     17
      4      8      9     19     18
  
CELL_DATA 9
SCALARS Gamma double
LOOKUP_TABLE default
  0.00000000E+000
  0.00000000E+000
  0.00000000E+000
  0.00000000E+000
  0.00000000E+000
  0.00000000E+000
  0.00000000E+000
  0.00000000E+000
  0.00000000E+000
POINT_DATA 20
VECTORS Uconv double
  0.00000000E+000  0.00000000E+000  0.00000000E+000
  0.00000000E+000  0.00000000E+000  0.00000000E+000
  0.00000000E+000  0.00000000E+000  0.00000000E+000
  0.00000000E+000  0.00000000E+000  0.00000000E+000
  0.00000000E+000  0.00000000E+000  0.00000000E+000
  0.00000000E+000  0.00000000E+000  0.00000000E+000
  0.00000000E+000  0.00000000E+000  0.00000000E+000
  0.00000000E+000  0.00000000E+000  0.00000000E+000
  0.00000000E+000  0.00000000E+000  0.00000000E+000
  0.00000000E+000  0.00000000E+000  0.00000000E+000
  0.00000000E+000  0.00000000E+000  0.00000000E+000
  0.00000000E+000  0.00000000E+000  0.00000000E+000
  0.00000000E+000  0.00000000E+000  0.00000000E+000
  0.00000000E+000  0.00000000E+000  0.00000000E+000
  0.00000000E+000  0.00000000E+000  0.00000000E+000
  0.00000000E+000  0.00000000E+000  0.00000000E+000
  0.00000000E+000  0.00000000E+000  0.00000000E+000
  0.00000000E+000  0.00000000E+000  0.00000000E+000
  0.00000000E+000  0.00000000E+000  0.00000000E+000
  0.00000000E+000  0.00000000E+000  0.00000000E+000
