# vtk DataFile Version 2.0
Sgmt
ASCII
 
DATASET POLYDATA
POINTS 180 double
  0.00000000E+000  0.18891878E-014  0.11318291E+003
 -0.35527137E-014  0.22080324E+002  0.10094036E+003
 -0.57731597E-014  0.35964987E+002  0.88697816E+002
 -0.76605389E-014  0.47520281E+002  0.76455271E+002
 -0.85487173E-014  0.53290014E+002  0.64212725E+002
 -0.85487173E-014  0.53290014E+002  0.51970180E+002
 -0.76605389E-014  0.47520281E+002  0.39727634E+002
 -0.57731597E-014  0.35965042E+002  0.27485089E+002
 -0.35527137E-014  0.22080324E+002  0.15242543E+002
  0.00000000E+000  0.16268848E-013  0.29999979E+001
  0.45000000E+001  0.26128430E-014  0.11318291E+003
  0.44756042E+001  0.22080324E+002  0.10094036E+003
  0.30849777E+001  0.35964987E+002  0.88697816E+002
  0.24523208E+001  0.47520281E+002  0.76455271E+002
  0.22551871E+001  0.53290014E+002  0.64212725E+002
  0.22993103E+001  0.53290014E+002  0.51970180E+002
  0.25990012E+001  0.47520281E+002  0.39727634E+002
  0.34250689E+001  0.35965042E+002  0.27485089E+002
  0.45000000E+001  0.22080324E+002  0.15242543E+002
  0.45000000E+001  0.16992504E-013  0.29999979E+001
  0.17763568E-014 -0.88817842E-015  0.11318291E+003
  0.19122122E+002 -0.11040162E+002  0.10094036E+003
  0.31146593E+002 -0.17982494E+002  0.88697816E+002
  0.41153770E+002 -0.23760140E+002  0.76455271E+002
  0.46150506E+002 -0.26645007E+002  0.64212725E+002
  0.46150506E+002 -0.26645007E+002  0.51970180E+002
  0.41153770E+002 -0.23760140E+002  0.39727634E+002
  0.31146640E+002 -0.17982521E+002  0.27485089E+002
  0.19122122E+002 -0.11040162E+002  0.15242543E+002
  0.14988011E-013 -0.15321078E-013  0.29999979E+001
  0.22500000E+001 -0.38971143E+001  0.11318291E+003
  0.16884320E+002 -0.14916149E+002  0.10094036E+003
  0.29604104E+002 -0.20654163E+002  0.88697816E+002
  0.39927610E+002 -0.25883913E+002  0.76455271E+002
  0.45022912E+002 -0.28598056E+002  0.64212725E+002
  0.45000851E+002 -0.28636268E+002  0.51970180E+002
  0.39854270E+002 -0.26010942E+002  0.39727634E+002
  0.29434105E+002 -0.20948718E+002  0.27485089E+002
  0.16872122E+002 -0.14937277E+002  0.15242543E+002
 -0.22500000E+001 -0.38971143E+001  0.29999979E+001
 -0.16653345E-014 -0.88817842E-015  0.11318291E+003
 -0.19122122E+002 -0.11040162E+002  0.10094036E+003
 -0.31146593E+002 -0.17982494E+002  0.88697816E+002
 -0.41153770E+002 -0.23760140E+002  0.76455271E+002
 -0.46150506E+002 -0.26645007E+002  0.64212725E+002
 -0.46150506E+002 -0.26645007E+002  0.51970180E+002
 -0.41153770E+002 -0.23760140E+002  0.39727634E+002
 -0.31146640E+002 -0.17982521E+002  0.27485089E+002
 -0.19122122E+002 -0.11040162E+002  0.15242543E+002
 -0.15543122E-013 -0.15765167E-013  0.29999979E+001
 -0.22500000E+001 -0.38971143E+001  0.11318291E+003
 -0.21359924E+002 -0.71641753E+001  0.10094036E+003
 -0.32689082E+002 -0.15310825E+002  0.88697816E+002
 -0.42379931E+002 -0.21636368E+002  0.76455271E+002
 -0.47278099E+002 -0.24691958E+002  0.64212725E+002
 -0.47300161E+002 -0.24653746E+002  0.51970180E+002
 -0.42453271E+002 -0.21509339E+002  0.39727634E+002
 -0.32859174E+002 -0.15016324E+002  0.27485089E+002
 -0.21372122E+002 -0.71430479E+001  0.15242543E+002
 -0.22500000E+001  0.38971143E+001  0.29999979E+001
  0.00000000E+000  0.10000000E+000  0.25036581E+002
 -0.22204460E-015  0.39296731E+001  0.25036569E+002
 -0.66613381E-015  0.77593462E+001  0.25036557E+002
 -0.66613381E-015  0.11589019E+002  0.25036544E+002
 -0.88817842E-015  0.15418692E+002  0.25036532E+002
 -0.11102230E-014  0.19248366E+002  0.25036520E+002
 -0.13322676E-014  0.23078039E+002  0.25036508E+002
 -0.15543122E-014  0.26907712E+002  0.25036496E+002
 -0.17763568E-014  0.30737385E+002  0.25036483E+002
 -0.22204460E-014  0.34567058E+002  0.25036471E+002
  0.45000000E+001  0.10000000E+000  0.25036581E+002
  0.45000000E+001  0.39296731E+001  0.25036569E+002
  0.45000000E+001  0.77593462E+001  0.25036557E+002
  0.45000000E+001  0.11589019E+002  0.25036544E+002
  0.45000000E+001  0.15418692E+002  0.25036532E+002
  0.45000000E+001  0.19248366E+002  0.25036520E+002
  0.45000000E+001  0.23078039E+002  0.25036508E+002
  0.45000000E+001  0.26907712E+002  0.25036496E+002
  0.45000000E+001  0.30737385E+002  0.25036483E+002
  0.45000000E+001  0.34567058E+002  0.25036471E+002
  0.86602539E-001 -0.50000001E-001  0.25036581E+002
  0.34031967E+001 -0.19648366E+001  0.25036569E+002
  0.67197909E+001 -0.38796731E+001  0.25036557E+002
  0.10036385E+002 -0.57945097E+001  0.25036544E+002
  0.13352979E+002 -0.77093462E+001  0.25036532E+002
  0.16669574E+002 -0.96241828E+001  0.25036520E+002
  0.19986168E+002 -0.11539019E+002  0.25036508E+002
  0.23302762E+002 -0.13453856E+002  0.25036496E+002
  0.26619356E+002 -0.15368692E+002  0.25036483E+002
  0.29935950E+002 -0.17283529E+002  0.25036471E+002
 -0.21633975E+001 -0.39471143E+001  0.25036581E+002
  0.11531967E+001 -0.58619509E+001  0.25036569E+002
  0.44697909E+001 -0.77767874E+001  0.25036557E+002
  0.77863851E+001 -0.96916240E+001  0.25036544E+002
  0.11102979E+002 -0.11606461E+002  0.25036532E+002
  0.14419574E+002 -0.13521297E+002  0.25036520E+002
  0.17736168E+002 -0.15436134E+002  0.25036508E+002
  0.21052762E+002 -0.17350970E+002  0.25036496E+002
  0.24369356E+002 -0.19265807E+002  0.25036483E+002
  0.27685950E+002 -0.21180643E+002  0.25036471E+002
 -0.86602539E-001 -0.50000001E-001  0.25036581E+002
 -0.34031967E+001 -0.19648366E+001  0.25036569E+002
 -0.67197909E+001 -0.38796731E+001  0.25036557E+002
 -0.10036385E+002 -0.57945097E+001  0.25036544E+002
 -0.13352979E+002 -0.77093462E+001  0.25036532E+002
 -0.16669574E+002 -0.96241828E+001  0.25036520E+002
 -0.19986168E+002 -0.11539019E+002  0.25036508E+002
 -0.23302762E+002 -0.13453856E+002  0.25036496E+002
 -0.26619356E+002 -0.15368692E+002  0.25036483E+002
 -0.29935950E+002 -0.17283529E+002  0.25036471E+002
 -0.23366025E+001  0.38471143E+001  0.25036581E+002
 -0.56531967E+001  0.19322778E+001  0.25036569E+002
 -0.89697909E+001  0.17441213E-001  0.25036557E+002
 -0.12286385E+002 -0.18973953E+001  0.25036544E+002
 -0.15602979E+002 -0.38122319E+001  0.25036532E+002
 -0.18919574E+002 -0.57270684E+001  0.25036520E+002
 -0.22236168E+002 -0.76419050E+001  0.25036508E+002
 -0.25552762E+002 -0.95567415E+001  0.25036496E+002
 -0.28869356E+002 -0.11471578E+002  0.25036483E+002
 -0.32185950E+002 -0.13386415E+002  0.25036471E+002
  0.00000000E+000  0.10000000E+000  0.91146324E+002
 -0.22204460E-015  0.39297019E+001  0.91146312E+002
 -0.66613381E-015  0.77594038E+001  0.91146300E+002
 -0.66613381E-015  0.11589106E+002  0.91146288E+002
 -0.88817842E-015  0.15418808E+002  0.91146275E+002
 -0.11102230E-014  0.19248510E+002  0.91146263E+002
 -0.13322676E-014  0.23078211E+002  0.91146251E+002
 -0.15543122E-014  0.26907913E+002  0.91146239E+002
 -0.17763568E-014  0.30737615E+002  0.91146227E+002
 -0.22204460E-014  0.34567317E+002  0.91146214E+002
  0.45000000E+001  0.10000000E+000  0.91146324E+002
  0.45000000E+001  0.39297019E+001  0.91146312E+002
  0.45000000E+001  0.77594038E+001  0.91146300E+002
  0.45000000E+001  0.11589106E+002  0.91146288E+002
  0.45000000E+001  0.15418808E+002  0.91146275E+002
  0.45000000E+001  0.19248510E+002  0.91146263E+002
  0.45000000E+001  0.23078211E+002  0.91146251E+002
  0.45000000E+001  0.26907913E+002  0.91146239E+002
  0.45000000E+001  0.30737615E+002  0.91146227E+002
  0.45000000E+001  0.34567317E+002  0.91146214E+002
  0.86602539E-001 -0.50000001E-001  0.91146324E+002
  0.34032217E+001 -0.19648510E+001  0.91146312E+002
  0.67198408E+001 -0.38797019E+001  0.91146300E+002
  0.10036460E+002 -0.57945529E+001  0.91146288E+002
  0.13353079E+002 -0.77094038E+001  0.91146275E+002
  0.16669698E+002 -0.96242548E+001  0.91146263E+002
  0.19986317E+002 -0.11539106E+002  0.91146251E+002
  0.23302937E+002 -0.13453957E+002  0.91146239E+002
  0.26619556E+002 -0.15368808E+002  0.91146227E+002
  0.29936175E+002 -0.17283659E+002  0.91146214E+002
 -0.21633975E+001 -0.39471143E+001  0.91146324E+002
  0.11532217E+001 -0.58619653E+001  0.91146312E+002
  0.44698408E+001 -0.77768162E+001  0.91146300E+002
  0.77864600E+001 -0.96916672E+001  0.91146288E+002
  0.11103079E+002 -0.11606518E+002  0.91146275E+002
  0.14419698E+002 -0.13521369E+002  0.91146263E+002
  0.17736317E+002 -0.15436220E+002  0.91146251E+002
  0.21052937E+002 -0.17351071E+002  0.91146239E+002
  0.24369556E+002 -0.19265922E+002  0.91146227E+002
  0.27686175E+002 -0.21180773E+002  0.91146214E+002
 -0.86602539E-001 -0.50000001E-001  0.91146324E+002
 -0.34032217E+001 -0.19648510E+001  0.91146312E+002
 -0.67198408E+001 -0.38797019E+001  0.91146300E+002
 -0.10036460E+002 -0.57945529E+001  0.91146288E+002
 -0.13353079E+002 -0.77094038E+001  0.91146275E+002
 -0.16669698E+002 -0.96242548E+001  0.91146263E+002
 -0.19986317E+002 -0.11539106E+002  0.91146251E+002
 -0.23302937E+002 -0.13453957E+002  0.91146239E+002
 -0.26619556E+002 -0.15368808E+002  0.91146227E+002
 -0.29936175E+002 -0.17283659E+002  0.91146214E+002
 -0.23366025E+001  0.38471143E+001  0.91146324E+002
 -0.56532217E+001  0.19322634E+001  0.91146312E+002
 -0.89698408E+001  0.17412407E-001  0.91146300E+002
 -0.12286460E+002 -0.18974385E+001  0.91146288E+002
 -0.15603079E+002 -0.38122895E+001  0.91146275E+002
 -0.18919698E+002 -0.57271405E+001  0.91146263E+002
 -0.22236317E+002 -0.76419914E+001  0.91146251E+002
 -0.25552937E+002 -0.95568424E+001  0.91146239E+002
 -0.28869556E+002 -0.11471693E+002  0.91146227E+002
 -0.32186175E+002 -0.13386544E+002  0.91146214E+002
  
LINES 252 756
      2      0      1
      2      0     10
      2     10     11
      2      1      2
      2      1     11
      2     11     12
      2      2      3
      2      2     12
      2     12     13
      2      3      4
      2      3     13
      2     13     14
      2      4      5
      2      4     14
      2     14     15
      2      5      6
      2      5     15
      2     15     16
      2      6      7
      2      6     16
      2     16     17
      2      7      8
      2      7     17
      2     17     18
      2      8      9
      2      8     18
      2     18     19
      2      9     19
      2     20     21
      2     20     30
      2     30     31
      2     21     22
      2     21     31
      2     31     32
      2     22     23
      2     22     32
      2     32     33
      2     23     24
      2     23     33
      2     33     34
      2     24     25
      2     24     34
      2     34     35
      2     25     26
      2     25     35
      2     35     36
      2     26     27
      2     26     36
      2     36     37
      2     27     28
      2     27     37
      2     37     38
      2     28     29
      2     28     38
      2     38     39
      2     29     39
      2     40     41
      2     40     50
      2     50     51
      2     41     42
      2     41     51
      2     51     52
      2     42     43
      2     42     52
      2     52     53
      2     43     44
      2     43     53
      2     53     54
      2     44     45
      2     44     54
      2     54     55
      2     45     46
      2     45     55
      2     55     56
      2     46     47
      2     46     56
      2     56     57
      2     47     48
      2     47     57
      2     57     58
      2     48     49
      2     48     58
      2     58     59
      2     49     59
      2     60     61
      2     60     70
      2     70     71
      2     61     62
      2     61     71
      2     71     72
      2     62     63
      2     62     72
      2     72     73
      2     63     64
      2     63     73
      2     73     74
      2     64     65
      2     64     74
      2     74     75
      2     65     66
      2     65     75
      2     75     76
      2     66     67
      2     66     76
      2     76     77
      2     67     68
      2     67     77
      2     77     78
      2     68     69
      2     68     78
      2     78     79
      2     69     79
      2     80     81
      2     80     90
      2     90     91
      2     81     82
      2     81     91
      2     91     92
      2     82     83
      2     82     92
      2     92     93
      2     83     84
      2     83     93
      2     93     94
      2     84     85
      2     84     94
      2     94     95
      2     85     86
      2     85     95
      2     95     96
      2     86     87
      2     86     96
      2     96     97
      2     87     88
      2     87     97
      2     97     98
      2     88     89
      2     88     98
      2     98     99
      2     89     99
      2    100    101
      2    100    110
      2    110    111
      2    101    102
      2    101    111
      2    111    112
      2    102    103
      2    102    112
      2    112    113
      2    103    104
      2    103    113
      2    113    114
      2    104    105
      2    104    114
      2    114    115
      2    105    106
      2    105    115
      2    115    116
      2    106    107
      2    106    116
      2    116    117
      2    107    108
      2    107    117
      2    117    118
      2    108    109
      2    108    118
      2    118    119
      2    109    119
      2    120    121
      2    120    130
      2    130    131
      2    121    122
      2    121    131
      2    131    132
      2    122    123
      2    122    132
      2    132    133
      2    123    124
      2    123    133
      2    133    134
      2    124    125
      2    124    134
      2    134    135
      2    125    126
      2    125    135
      2    135    136
      2    126    127
      2    126    136
      2    136    137
      2    127    128
      2    127    137
      2    137    138
      2    128    129
      2    128    138
      2    138    139
      2    129    139
      2    140    141
      2    140    150
      2    150    151
      2    141    142
      2    141    151
      2    151    152
      2    142    143
      2    142    152
      2    152    153
      2    143    144
      2    143    153
      2    153    154
      2    144    145
      2    144    154
      2    154    155
      2    145    146
      2    145    155
      2    155    156
      2    146    147
      2    146    156
      2    156    157
      2    147    148
      2    147    157
      2    157    158
      2    148    149
      2    148    158
      2    158    159
      2    149    159
      2    160    161
      2    160    170
      2    170    171
      2    161    162
      2    161    171
      2    171    172
      2    162    163
      2    162    172
      2    172    173
      2    163    164
      2    163    173
      2    173    174
      2    164    165
      2    164    174
      2    174    175
      2    165    166
      2    165    175
      2    175    176
      2    166    167
      2    166    176
      2    176    177
      2    167    168
      2    167    177
      2    177    178
      2    168    169
      2    168    178
      2    178    179
      2    169    179
  
CELL_DATA 252
SCALARS Gamma double
LOOKUP_TABLE default
  0.00000000E+000
 -0.00000000E+000
 -0.00000000E+000
  0.00000000E+000
 -0.00000000E+000
 -0.00000000E+000
  0.00000000E+000
 -0.00000000E+000
 -0.00000000E+000
  0.00000000E+000
 -0.00000000E+000
 -0.00000000E+000
  0.00000000E+000
 -0.00000000E+000
 -0.00000000E+000
  0.00000000E+000
 -0.00000000E+000
 -0.00000000E+000
  0.00000000E+000
 -0.00000000E+000
 -0.00000000E+000
  0.00000000E+000
 -0.00000000E+000
 -0.00000000E+000
  0.00000000E+000
 -0.00000000E+000
 -0.00000000E+000
  0.00000000E+000
  0.00000000E+000
 -0.00000000E+000
 -0.00000000E+000
  0.00000000E+000
 -0.00000000E+000
 -0.00000000E+000
  0.00000000E+000
 -0.00000000E+000
 -0.00000000E+000
  0.00000000E+000
 -0.00000000E+000
 -0.00000000E+000
  0.00000000E+000
 -0.00000000E+000
 -0.00000000E+000
  0.00000000E+000
 -0.00000000E+000
 -0.00000000E+000
  0.00000000E+000
 -0.00000000E+000
 -0.00000000E+000
  0.00000000E+000
 -0.00000000E+000
 -0.00000000E+000
  0.00000000E+000
 -0.00000000E+000
 -0.00000000E+000
  0.00000000E+000
  0.00000000E+000
 -0.00000000E+000
 -0.00000000E+000
  0.00000000E+000
 -0.00000000E+000
 -0.00000000E+000
  0.00000000E+000
 -0.00000000E+000
 -0.00000000E+000
  0.00000000E+000
 -0.00000000E+000
 -0.00000000E+000
  0.00000000E+000
 -0.00000000E+000
 -0.00000000E+000
  0.00000000E+000
 -0.00000000E+000
 -0.00000000E+000
  0.00000000E+000
 -0.00000000E+000
 -0.00000000E+000
  0.00000000E+000
 -0.00000000E+000
 -0.00000000E+000
  0.00000000E+000
 -0.00000000E+000
 -0.00000000E+000
  0.00000000E+000
  0.00000000E+000
 -0.00000000E+000
 -0.00000000E+000
  0.00000000E+000
 -0.00000000E+000
 -0.00000000E+000
  0.00000000E+000
 -0.00000000E+000
 -0.00000000E+000
  0.00000000E+000
 -0.00000000E+000
 -0.00000000E+000
  0.00000000E+000
 -0.00000000E+000
 -0.00000000E+000
  0.00000000E+000
 -0.00000000E+000
 -0.00000000E+000
  0.00000000E+000
 -0.00000000E+000
 -0.00000000E+000
  0.00000000E+000
 -0.00000000E+000
 -0.00000000E+000
  0.00000000E+000
 -0.00000000E+000
 -0.00000000E+000
  0.00000000E+000
  0.00000000E+000
 -0.00000000E+000
 -0.00000000E+000
  0.00000000E+000
 -0.00000000E+000
 -0.00000000E+000
  0.00000000E+000
 -0.00000000E+000
 -0.00000000E+000
  0.00000000E+000
 -0.00000000E+000
 -0.00000000E+000
  0.00000000E+000
 -0.00000000E+000
 -0.00000000E+000
  0.00000000E+000
 -0.00000000E+000
 -0.00000000E+000
  0.00000000E+000
 -0.00000000E+000
 -0.00000000E+000
  0.00000000E+000
 -0.00000000E+000
 -0.00000000E+000
  0.00000000E+000
 -0.00000000E+000
 -0.00000000E+000
  0.00000000E+000
  0.00000000E+000
 -0.00000000E+000
 -0.00000000E+000
  0.00000000E+000
 -0.00000000E+000
 -0.00000000E+000
  0.00000000E+000
 -0.00000000E+000
 -0.00000000E+000
  0.00000000E+000
 -0.00000000E+000
 -0.00000000E+000
  0.00000000E+000
 -0.00000000E+000
 -0.00000000E+000
  0.00000000E+000
 -0.00000000E+000
 -0.00000000E+000
  0.00000000E+000
 -0.00000000E+000
 -0.00000000E+000
  0.00000000E+000
 -0.00000000E+000
 -0.00000000E+000
  0.00000000E+000
 -0.00000000E+000
 -0.00000000E+000
  0.00000000E+000
  0.00000000E+000
 -0.00000000E+000
 -0.00000000E+000
  0.00000000E+000
 -0.00000000E+000
 -0.00000000E+000
  0.00000000E+000
 -0.00000000E+000
 -0.00000000E+000
  0.00000000E+000
 -0.00000000E+000
 -0.00000000E+000
  0.00000000E+000
 -0.00000000E+000
 -0.00000000E+000
  0.00000000E+000
 -0.00000000E+000
 -0.00000000E+000
  0.00000000E+000
 -0.00000000E+000
 -0.00000000E+000
  0.00000000E+000
 -0.00000000E+000
 -0.00000000E+000
  0.00000000E+000
 -0.00000000E+000
 -0.00000000E+000
  0.00000000E+000
  0.00000000E+000
 -0.00000000E+000
 -0.00000000E+000
  0.00000000E+000
 -0.00000000E+000
 -0.00000000E+000
  0.00000000E+000
 -0.00000000E+000
 -0.00000000E+000
  0.00000000E+000
 -0.00000000E+000
 -0.00000000E+000
  0.00000000E+000
 -0.00000000E+000
 -0.00000000E+000
  0.00000000E+000
 -0.00000000E+000
 -0.00000000E+000
  0.00000000E+000
 -0.00000000E+000
 -0.00000000E+000
  0.00000000E+000
 -0.00000000E+000
 -0.00000000E+000
  0.00000000E+000
 -0.00000000E+000
 -0.00000000E+000
  0.00000000E+000
  0.00000000E+000
 -0.00000000E+000
 -0.00000000E+000
  0.00000000E+000
 -0.00000000E+000
 -0.00000000E+000
  0.00000000E+000
 -0.00000000E+000
 -0.00000000E+000
  0.00000000E+000
 -0.00000000E+000
 -0.00000000E+000
  0.00000000E+000
 -0.00000000E+000
 -0.00000000E+000
  0.00000000E+000
 -0.00000000E+000
 -0.00000000E+000
  0.00000000E+000
 -0.00000000E+000
 -0.00000000E+000
  0.00000000E+000
 -0.00000000E+000
 -0.00000000E+000
  0.00000000E+000
 -0.00000000E+000
 -0.00000000E+000
  0.00000000E+000
SCALARS Epsilon double
LOOKUP_TABLE default
  0.25247191E+002
  0.25247191E+002
  0.25247191E+002
  0.18511180E+002
  0.21879185E+002
  0.18511180E+002
  0.16834629E+002
  0.17672904E+002
  0.16834629E+002
  0.13534022E+002
  0.15184325E+002
  0.13534022E+002
  0.12242545E+002
  0.12888283E+002
  0.12242545E+002
  0.13534022E+002
  0.12888283E+002
  0.13534022E+002
  0.16834592E+002
  0.15184307E+002
  0.16834592E+002
  0.18511221E+002
  0.17672906E+002
  0.18511221E+002
  0.25247191E+002
  0.21879206E+002
  0.25247191E+002
  0.25247191E+002
  0.25247191E+002
  0.25247191E+002
  0.25247191E+002
  0.18511180E+002
  0.21879185E+002
  0.18511180E+002
  0.16834629E+002
  0.17672904E+002
  0.16834629E+002
  0.13534022E+002
  0.15184325E+002
  0.13534022E+002
  0.12242545E+002
  0.12888283E+002
  0.12242545E+002
  0.13534022E+002
  0.12888283E+002
  0.13534022E+002
  0.16834592E+002
  0.15184307E+002
  0.16834592E+002
  0.18511221E+002
  0.17672906E+002
  0.18511221E+002
  0.25247191E+002
  0.21879206E+002
  0.25247191E+002
  0.25247191E+002
  0.25247191E+002
  0.25247191E+002
  0.25247191E+002
  0.18511180E+002
  0.21879185E+002
  0.18511180E+002
  0.16834629E+002
  0.17672904E+002
  0.16834629E+002
  0.13534022E+002
  0.15184325E+002
  0.13534022E+002
  0.12242545E+002
  0.12888283E+002
  0.12242545E+002
  0.13534022E+002
  0.12888283E+002
  0.13534022E+002
  0.16834592E+002
  0.15184307E+002
  0.16834592E+002
  0.18511221E+002
  0.17672906E+002
  0.18511221E+002
  0.25247191E+002
  0.21879206E+002
  0.25247191E+002
  0.25247191E+002
  0.38296731E+001
  0.38296731E+001
  0.38296731E+001
  0.38296731E+001
  0.38296731E+001
  0.38296731E+001
  0.38296731E+001
  0.38296731E+001
  0.38296731E+001
  0.38296731E+001
  0.38296731E+001
  0.38296731E+001
  0.38296731E+001
  0.38296731E+001
  0.38296731E+001
  0.38296731E+001
  0.38296731E+001
  0.38296731E+001
  0.38296731E+001
  0.38296731E+001
  0.38296731E+001
  0.38296731E+001
  0.38296731E+001
  0.38296731E+001
  0.38296731E+001
  0.38296731E+001
  0.38296731E+001
  0.38296731E+001
  0.38296731E+001
  0.38296731E+001
  0.38296731E+001
  0.38296731E+001
  0.38296731E+001
  0.38296731E+001
  0.38296731E+001
  0.38296731E+001
  0.38296731E+001
  0.38296731E+001
  0.38296731E+001
  0.38296731E+001
  0.38296731E+001
  0.38296731E+001
  0.38296731E+001
  0.38296731E+001
  0.38296731E+001
  0.38296731E+001
  0.38296731E+001
  0.38296731E+001
  0.38296731E+001
  0.38296731E+001
  0.38296731E+001
  0.38296731E+001
  0.38296731E+001
  0.38296731E+001
  0.38296731E+001
  0.38296731E+001
  0.38296731E+001
  0.38296731E+001
  0.38296731E+001
  0.38296731E+001
  0.38296731E+001
  0.38296731E+001
  0.38296731E+001
  0.38296731E+001
  0.38296731E+001
  0.38296731E+001
  0.38296731E+001
  0.38296731E+001
  0.38296731E+001
  0.38296731E+001
  0.38296731E+001
  0.38296731E+001
  0.38296731E+001
  0.38296731E+001
  0.38296731E+001
  0.38296731E+001
  0.38296731E+001
  0.38296731E+001
  0.38296731E+001
  0.38296731E+001
  0.38296731E+001
  0.38296731E+001
  0.38296731E+001
  0.38296731E+001
  0.38297019E+001
  0.38297019E+001
  0.38297019E+001
  0.38297019E+001
  0.38297019E+001
  0.38297019E+001
  0.38297019E+001
  0.38297019E+001
  0.38297019E+001
  0.38297019E+001
  0.38297019E+001
  0.38297019E+001
  0.38297019E+001
  0.38297019E+001
  0.38297019E+001
  0.38297019E+001
  0.38297019E+001
  0.38297019E+001
  0.38297019E+001
  0.38297019E+001
  0.38297019E+001
  0.38297019E+001
  0.38297019E+001
  0.38297019E+001
  0.38297019E+001
  0.38297019E+001
  0.38297019E+001
  0.38297019E+001
  0.38297019E+001
  0.38297019E+001
  0.38297019E+001
  0.38297019E+001
  0.38297019E+001
  0.38297019E+001
  0.38297019E+001
  0.38297019E+001
  0.38297019E+001
  0.38297019E+001
  0.38297019E+001
  0.38297019E+001
  0.38297019E+001
  0.38297019E+001
  0.38297019E+001
  0.38297019E+001
  0.38297019E+001
  0.38297019E+001
  0.38297019E+001
  0.38297019E+001
  0.38297019E+001
  0.38297019E+001
  0.38297019E+001
  0.38297019E+001
  0.38297019E+001
  0.38297019E+001
  0.38297019E+001
  0.38297019E+001
  0.38297019E+001
  0.38297019E+001
  0.38297019E+001
  0.38297019E+001
  0.38297019E+001
  0.38297019E+001
  0.38297019E+001
  0.38297019E+001
  0.38297019E+001
  0.38297019E+001
  0.38297019E+001
  0.38297019E+001
  0.38297019E+001
  0.38297019E+001
  0.38297019E+001
  0.38297019E+001
  0.38297019E+001
  0.38297019E+001
  0.38297019E+001
  0.38297019E+001
  0.38297019E+001
  0.38297019E+001
  0.38297019E+001
  0.38297019E+001
  0.38297019E+001
  0.38297019E+001
  0.38297019E+001
  0.38297019E+001
