# vtk DataFile Version 2.0
BldPointCP.BldC
ASCII
 
DATASET POLYDATA
POINTS 9 double
 -0.11032857E+002 -0.63698231E+001  0.10611935E+003
 -0.25437027E+002 -0.14686075E+002  0.94510930E+002
 -0.36345469E+002 -0.20984066E+002  0.82337634E+002
 -0.43751315E+002 -0.25259834E+002  0.70091003E+002
 -0.46150506E+002 -0.26645007E+002  0.58091453E+002
 -0.43751315E+002 -0.25259833E+002  0.46091901E+002
 -0.36345493E+002 -0.20984080E+002  0.33845273E+002
 -0.25437054E+002 -0.14686090E+002  0.21671977E+002
 -0.11032847E+002 -0.63698172E+001  0.10063551E+002
  
POINT_DATA 9
SCALARS Gamma_LL double
LOOKUP_TABLE default
  0.00000000E+000
  0.00000000E+000
  0.00000000E+000
  0.00000000E+000
  0.00000000E+000
  0.00000000E+000
  0.00000000E+000
  0.00000000E+000
  0.00000000E+000
VECTORS Vind_CP double
  0.00000000E+000  0.00000000E+000  0.00000000E+000
  0.00000000E+000  0.00000000E+000  0.00000000E+000
  0.00000000E+000  0.00000000E+000  0.00000000E+000
  0.00000000E+000  0.00000000E+000  0.00000000E+000
  0.00000000E+000  0.00000000E+000  0.00000000E+000
  0.00000000E+000  0.00000000E+000  0.00000000E+000
  0.00000000E+000  0.00000000E+000  0.00000000E+000
  0.00000000E+000  0.00000000E+000  0.00000000E+000
  0.00000000E+000  0.00000000E+000  0.00000000E+000
VECTORS Vtot_CP double
 -0.11473196E+002  0.19872160E+002  0.00000000E+000
 -0.26452260E+002  0.45816659E+002  0.00000000E+000
 -0.37796075E+002  0.65464722E+002  0.00000000E+000
 -0.45497501E+002  0.78803984E+002  0.00000000E+000
 -0.47992446E+002  0.83125359E+002  0.00000000E+000
 -0.45497500E+002  0.78803983E+002  0.00000000E+000
 -0.37796099E+002  0.65464765E+002  0.00000000E+000
 -0.26452287E+002  0.45816707E+002  0.00000000E+000
 -0.11473186E+002  0.19872142E+002  0.00000000E+000
VECTORS Vstr_CP double
  0.11473196E+002 -0.19872160E+002  0.00000000E+000
  0.26452260E+002 -0.45816659E+002  0.00000000E+000
  0.37796075E+002 -0.65464722E+002  0.00000000E+000
  0.45497501E+002 -0.78803984E+002  0.00000000E+000
  0.47992446E+002 -0.83125359E+002  0.00000000E+000
  0.45497500E+002 -0.78803983E+002  0.00000000E+000
  0.37796099E+002 -0.65464765E+002  0.00000000E+000
  0.26452287E+002 -0.45816707E+002  0.00000000E+000
  0.11473186E+002 -0.19872142E+002  0.00000000E+000
VECTORS Vwnd_CP double
  0.00000000E+000  0.00000000E+000  0.00000000E+000
  0.00000000E+000  0.00000000E+000  0.00000000E+000
  0.00000000E+000  0.00000000E+000  0.00000000E+000
  0.00000000E+000  0.00000000E+000  0.00000000E+000
  0.00000000E+000  0.00000000E+000  0.00000000E+000
  0.00000000E+000  0.00000000E+000  0.00000000E+000
  0.00000000E+000  0.00000000E+000  0.00000000E+000
  0.00000000E+000  0.00000000E+000  0.00000000E+000
  0.00000000E+000  0.00000000E+000  0.00000000E+000
VECTORS Tangent double
 -0.99998892E+000 -0.47076879E-002  0.00000000E+000
 -0.50000000E+000  0.86602540E+000  0.00000000E+000
 -0.50000000E+000  0.86602540E+000  0.00000000E+000
 -0.50000000E+000  0.86602540E+000  0.00000000E+000
 -0.50000000E+000  0.86602540E+000  0.00000000E+000
 -0.50000000E+000  0.86602540E+000  0.00000000E+000
 -0.50000000E+000  0.86602540E+000  0.00000000E+000
 -0.50000000E+000  0.86602540E+000  0.00000000E+000
 -0.50000000E+000  0.86602540E+000  0.00000000E+000
VECTORS Normal double
  0.35089101E-002 -0.74534914E+000  0.66666509E+000
 -0.57275416E+000 -0.33067977E+000  0.75006904E+000
 -0.62979443E+000 -0.36361198E+000  0.68640025E+000
 -0.78338544E+000 -0.45228779E+000  0.42631327E+000
 -0.86602540E+000 -0.50000000E+000 -0.64772783E-015
 -0.78338544E+000 -0.45228779E+000 -0.42631327E+000
 -0.62979582E+000 -0.36361279E+000 -0.68639855E+000
 -0.57275290E+000 -0.33067904E+000 -0.75007032E+000
 -0.41994198E+000 -0.24245362E+000 -0.87456559E+000
VECTORS Orth double
  0.31384512E-002 -0.66665770E+000 -0.74535740E+000
 -0.64957884E+000 -0.37503452E+000 -0.66135954E+000
 -0.59444005E+000 -0.34320013E+000 -0.72722396E+000
 -0.36919813E+000 -0.21315664E+000 -0.90457559E+000
  0.56094876E-015  0.32386392E-015 -0.10000000E+001
  0.36919813E+000  0.21315664E+000 -0.90457559E+000
  0.59443858E+000  0.34319927E+000 -0.72722557E+000
  0.64957995E+000  0.37503516E+000 -0.66135808E+000
  0.75739602E+000  0.43728280E+000 -0.48490723E+000
