<?xml version="1.0"?>
<VTKFile type="PolyData" version="0.1" byte_order="LittleEndian">
  <PolyData>
    <Piece NumberOfPoints="     10" NumberOfVerts="  0" NumberOfLines="      9"
           NumberOfStrips="  0" NumberOfPolys="      0">
      <Points>
        <DataArray type="Float32" NumberOfComponents="3" format="ascii">
                       0.00000                       0.00000                     113.18291
                      -0.00000                      22.08032                     100.94036
                      -0.00000                      35.96499                      88.69782
                      -0.00000                      47.52028                      76.45527
                      -0.00000                      53.29001                      64.21273
                      -0.00000                      53.29001                      51.97018
                      -0.00000                      47.52028                      39.72763
                      -0.00000                      35.96504                      27.48509
                      -0.00000                      22.08032                      15.24254
                      -0.00000                       0.00000                       3.00000
        </DataArray>
      </Points>
      <PointData>
        <DataArray type="Float32" Name="TranslationalVelocity" NumberOfComponents="3" format="ascii">
                      -0.00000                       0.00000                       0.00000
                     -39.77063                      -0.00000                       0.00000
                     -64.77941                      -0.00000                       0.00000
                     -85.59257                      -0.00000                       0.00000
                     -95.98489                      -0.00000                       0.00000
                     -95.98489                      -0.00000                       0.00000
                     -85.59257                      -0.00000                       0.00000
                     -64.77950                      -0.00000                       0.00000
                     -39.77063                      -0.00000                       0.00000
                      -0.00000                      -0.00000                       0.00000
        </DataArray>
        <DataArray type="Float32" Name="RotationalVelocity" NumberOfComponents="3" format="ascii">
                       0.00000                       0.00000                       1.80118
                       0.00000                       0.00000                       1.80118
                       0.00000                       0.00000                       1.80118
                       0.00000                       0.00000                       1.80118
                       0.00000                       0.00000                       1.80118
                       0.00000                       0.00000                       1.80118
                       0.00000                       0.00000                       1.80118
                       0.00000                       0.00000                       1.80118
                       0.00000                       0.00000                       1.80118
                       0.00000                       0.00000                       1.80118
        </DataArray>
        <DataArray type="Float32" Name="TranslationalAcceleration" NumberOfComponents="3" format="ascii">
                       0.00000                       0.00000                       0.00000
                       0.00000                       2.38134                       0.00000
                       0.00000                       3.59566                       0.00000
                       0.00000                       3.11513                       0.00000
                       0.00000                      -0.18345                       0.00000
                       0.00000                      -0.18345                       0.00000
                       0.00000                       3.11513                       0.00000
                       0.00000                       3.59549                       0.00000
                       0.00000                       2.38134                       0.00000
                       0.00000                      -0.00000                       0.00000
        </DataArray>
        <DataArray type="Float32" Name="OrientationX" NumberOfComponents="3" format="ascii">
                      -0.00000                       1.00000                       0.00000
                      -0.00000                       1.00000                       0.00000
                      -0.00000                       1.00000                       0.00000
                      -0.00000                       1.00000                       0.00000
                      -0.00000                       1.00000                       0.00000
                      -0.00000                       1.00000                      -0.00000
                      -0.00000                       1.00000                      -0.00000
                      -0.00000                       1.00000                      -0.00000
                      -0.00000                       1.00000                       0.00000
                      -0.00000                       1.00000                       0.00000
        </DataArray>
        <DataArray type="Float32" Name="OrientationY" NumberOfComponents="3" format="ascii">
                       1.00000                       0.00000                       0.00000
                       1.00000                       0.00000                       0.00000
                       1.00000                       0.00000                       0.00000
                       1.00000                       0.00000                       0.00000
                       1.00000                       0.00000                       0.00000
                       1.00000                       0.00000                      -0.00000
                       1.00000                       0.00000                      -0.00000
                       1.00000                       0.00000                      -0.00000
                       1.00000                       0.00000                      -0.00000
                       1.00000                       0.00000                      -0.00000
        </DataArray>
        <DataArray type="Float32" Name="OrientationZ" NumberOfComponents="3" format="ascii">
                       0.00000                       0.00000                      -1.00000
                       0.00000                       0.00000                      -1.00000
                       0.00000                       0.00000                      -1.00000
                       0.00000                       0.00000                      -1.00000
                       0.00000                       0.00000                      -1.00000
                      -0.00000                      -0.00000                      -1.00000
                      -0.00000                      -0.00000                      -1.00000
                      -0.00000                      -0.00000                      -1.00000
                      -0.00000                       0.00000                      -1.00000
                      -0.00000                       0.00000                      -1.00000
        </DataArray>
      </PointData>
      <Lines>
        <DataArray type="Int32" Name="connectivity" format="ascii">
      0      1
      1      2
      2      3
      3      4
      4      5
      5      6
      6      7
      7      8
      8      9
        </DataArray>
        <DataArray type="Int32" Name="offsets" format="ascii">
      2
      4
      6
      8
     10
     12
     14
     16
     18
        </DataArray>
      </Lines>
    </Piece>
  </PolyData>
</VTKFile>
