<?xml version="1.0"?>
<VTKFile type="PolyData" version="0.1" byte_order="LittleEndian">
  <PolyData>
    <Piece NumberOfPoints="     10" NumberOfVerts="  0" NumberOfLines="      9"
           NumberOfStrips="  0" NumberOfPolys="      0">
      <Points>
        <DataArray type="Float32" NumberOfComponents="3" format="ascii">
                      -0.08660                      -0.05000                      91.14632
                      -3.40322                      -1.96485                      91.14631
                      -6.71984                      -3.87970                      91.14630
                     -10.03646                      -5.79455                      91.14629
                     -13.35308                      -7.70940                      91.14628
                     -16.66970                      -9.62425                      91.14626
                     -19.98632                     -11.53911                      91.14625
                     -23.30294                     -13.45396                      91.14624
                     -26.61956                     -15.36881                      91.14623
                     -29.93617                     -17.28366                      91.14621
        </DataArray>
      </Points>
      <PointData>
        <DataArray type="Float32" Name="TranslationalVelocity" NumberOfComponents="3" format="ascii">
                       0.09006                      -0.15599                       0.00000
                       3.53905                      -6.12981                       0.00000
                       6.98804                     -12.10364                       0.00000
                      10.43703                     -18.07747                       0.00000
                      13.88602                     -24.05130                       0.00000
                      17.33501                     -30.02512                       0.00000
                      20.78400                     -35.99895                       0.00000
                      24.23299                     -41.97278                       0.00000
                      27.68199                     -47.94660                       0.00000
                      31.13098                     -53.92043                       0.00000
        </DataArray>
        <DataArray type="Float32" Name="RotationalVelocity" NumberOfComponents="3" format="ascii">
                       0.00000                       0.00000                       1.80118
                       0.00000                       0.00000                       1.80118
                       0.00000                       0.00000                       1.80118
                       0.00000                       0.00000                       1.80118
                       0.00000                       0.00000                       1.80118
                       0.00000                       0.00000                       1.80118
                       0.00000                       0.00000                       1.80118
                       0.00000                       0.00000                       1.80118
                       0.00000                       0.00000                       1.80118
                       0.00000                       0.00000                       1.80118
        </DataArray>
        <DataArray type="Float32" Name="TranslationalAcceleration" NumberOfComponents="3" format="ascii">
                       0.00000                       0.00000                       0.00000
                      -8.38318                      -4.84003                       0.00000
                       2.37676                       1.37222                       0.00000
                      -6.28739                      -3.63002                       0.00000
                       4.47255                       2.58223                       0.00000
                      -4.19159                      -2.42002                       0.00000
                       6.56835                       3.79224                       0.00000
                      -2.09580                      -1.21001                       0.00000
                      -3.23277                      -1.86644                       0.00000
                       0.00000                      -0.00000                       0.00000
        </DataArray>
        <DataArray type="Float32" Name="OrientationX" NumberOfComponents="3" format="ascii">
                      -0.00000                      -0.00000                       1.00000
                      -0.00000                      -0.00000                       1.00000
                      -0.00000                      -0.00000                       1.00000
                      -0.00000                      -0.00000                       1.00000
                      -0.00000                      -0.00000                       1.00000
                      -0.00000                      -0.00000                       1.00000
                      -0.00000                      -0.00000                       1.00000
                      -0.00000                      -0.00000                       1.00000
                      -0.00000                      -0.00000                       1.00000
                      -0.00000                      -0.00000                       1.00000
        </DataArray>
        <DataArray type="Float32" Name="OrientationY" NumberOfComponents="3" format="ascii">
                      -0.50000                       0.86603                      -0.00000
                      -0.50000                       0.86603                      -0.00000
                      -0.50000                       0.86603                      -0.00000
                      -0.50000                       0.86603                      -0.00000
                      -0.50000                       0.86603                      -0.00000
                      -0.50000                       0.86603                      -0.00000
                      -0.50000                       0.86603                      -0.00000
                      -0.50000                       0.86603                      -0.00000
                      -0.50000                       0.86603                       0.00000
                      -0.50000                       0.86603                       0.00000
        </DataArray>
        <DataArray type="Float32" Name="OrientationZ" NumberOfComponents="3" format="ascii">
                      -0.86603                      -0.50000                      -0.00000
                      -0.86603                      -0.50000                      -0.00000
                      -0.86603                      -0.50000                      -0.00000
                      -0.86603                      -0.50000                      -0.00000
                      -0.86603                      -0.50000                      -0.00000
                      -0.86603                      -0.50000                      -0.00000
                      -0.86603                      -0.50000                      -0.00000
                      -0.86603                      -0.50000                      -0.00000
                      -0.86603                      -0.50000                      -0.00000
                      -0.86603                      -0.50000                      -0.00000
        </DataArray>
      </PointData>
      <Lines>
        <DataArray type="Int32" Name="connectivity" format="ascii">
      0      1
      1      2
      2      3
      3      4
      4      5
      5      6
      6      7
      7      8
      8      9
        </DataArray>
        <DataArray type="Int32" Name="offsets" format="ascii">
      2
      4
      6
      8
     10
     12
     14
     16
     18
        </DataArray>
      </Lines>
    </Piece>
  </PolyData>
</VTKFile>
