# vtk DataFile Version 2.0

ASCII
 
DATASET POLYDATA
POINTS 20 double
  0.00000000E+000  0.18891878E-014  0.11318291E+003
 -0.35527137E-014  0.22080324E+002  0.10094036E+003
 -0.56621374E-014  0.35964987E+002  0.88697816E+002
 -0.77715612E-014  0.47520281E+002  0.76455271E+002
 -0.85487173E-014  0.53290014E+002  0.64212725E+002
 -0.85487173E-014  0.53290014E+002  0.51970180E+002
 -0.77715612E-014  0.47520281E+002  0.39727634E+002
 -0.57731597E-014  0.35965042E+002  0.27485089E+002
 -0.35527137E-014  0.22080324E+002  0.15242543E+002
  0.00000000E+000  0.16268849E-013  0.29999979E+001
  0.45000000E+001  0.27580206E-014  0.11318291E+003
  0.44756042E+001  0.22080324E+002  0.10094036E+003
  0.30849777E+001  0.35964987E+002  0.88697816E+002
  0.24523208E+001  0.47520281E+002  0.76455271E+002
  0.22551871E+001  0.53290014E+002  0.64212725E+002
  0.22993103E+001  0.53290014E+002  0.51970180E+002
  0.25990012E+001  0.47520281E+002  0.39727634E+002
  0.34250689E+001  0.35965042E+002  0.27485089E+002
  0.45000000E+001  0.22080324E+002  0.15242543E+002
  0.45000000E+001  0.17137681E-013  0.29999979E+001
  
POLYGONS 9 45
      4      0      1     11     10
      4      1      2     12     11
      4      2      3     13     12
      4      3      4     14     13
      4      4      5     15     14
      4      5      6     16     15
      4      6      7     17     16
      4      7      8     18     17
      4      8      9     19     18
  
CELL_DATA 9
SCALARS Gamma double
LOOKUP_TABLE default
  0.00000000E+000
  0.00000000E+000
  0.00000000E+000
  0.00000000E+000
  0.00000000E+000
  0.00000000E+000
  0.00000000E+000
  0.00000000E+000
  0.00000000E+000
POINT_DATA 20
VECTORS Uconv double
  0.00000000E+000  0.00000000E+000  0.00000000E+000
  0.00000000E+000  0.00000000E+000  0.00000000E+000
  0.00000000E+000  0.00000000E+000  0.00000000E+000
  0.00000000E+000  0.00000000E+000  0.00000000E+000
  0.00000000E+000  0.00000000E+000  0.00000000E+000
  0.00000000E+000  0.00000000E+000  0.00000000E+000
  0.00000000E+000  0.00000000E+000  0.00000000E+000
  0.00000000E+000  0.00000000E+000  0.00000000E+000
  0.00000000E+000  0.00000000E+000  0.00000000E+000
  0.00000000E+000  0.00000000E+000  0.00000000E+000
  0.00000000E+000  0.00000000E+000  0.00000000E+000
  0.00000000E+000  0.00000000E+000  0.00000000E+000
  0.00000000E+000  0.00000000E+000  0.00000000E+000
  0.00000000E+000  0.00000000E+000  0.00000000E+000
  0.00000000E+000  0.00000000E+000  0.00000000E+000
  0.00000000E+000  0.00000000E+000  0.00000000E+000
  0.00000000E+000  0.00000000E+000  0.00000000E+000
  0.00000000E+000  0.00000000E+000  0.00000000E+000
  0.00000000E+000  0.00000000E+000  0.00000000E+000
  0.00000000E+000  0.00000000E+000  0.00000000E+000
