<?xml version="1.0"?>
<VTKFile type="PolyData" version="0.1" byte_order="LittleEndian">
  <PolyData>
    <Piece NumberOfPoints="    195" NumberOfVerts="  0" NumberOfLines="      0"
           NumberOfStrips="  0" NumberOfPolys="      0">
      <Points>
        <DataArray type="Float32" NumberOfComponents="3" format="ascii">
                       0.00000                       0.00000                     113.18291
                       0.00000                       4.23448                     110.97925
                       0.00000                       8.29613                     108.77560
                       0.00000                      12.18493                     106.57194
                       0.00000                      15.90091                     104.36828
                       0.00000                      19.44404                     102.16462
                       0.00000                      22.81434                      99.96096
                       0.00000                      26.01181                      97.75730
                       0.00000                      29.03644                      95.55364
                       0.00000                      31.88823                      93.34998
                       0.00000                      34.56719                      91.14632
                       0.00000                      34.56732                      91.14622
                       0.00000                      37.07331                      88.94267
                       0.00000                      39.40659                      86.73901
                       0.00000                      41.56704                      84.53535
                       0.00000                      43.55466                      82.33170
                       0.00000                      45.36943                      80.12804
                       0.00000                      47.01138                      77.92438
                       0.00000                      48.48048                      75.72072
                       0.00000                      49.77675                      73.51706
                       0.00000                      50.90018                      71.31340
                       0.00000                      51.85078                      69.10975
                       0.00000                      52.62854                      66.90609
                       0.00000                      53.23347                      64.70243
                       0.00000                      53.66556                      62.49877
                       0.00000                      53.92481                      60.29511
                       0.00000                      54.01123                      58.09145
                       0.00000                      53.92481                      55.88780
                       0.00000                      53.66556                      53.68414
                       0.00000                      53.23347                      51.48048
                       0.00000                      52.62854                      49.27682
                       0.00000                      51.85078                      47.07316
                       0.00000                      50.90018                      44.86951
                       0.00000                      49.77675                      42.66585
                       0.00000                      48.48048                      40.46219
                       0.00000                      47.01138                      38.25853
                       0.00000                      45.36943                      36.05487
                       0.00000                      43.55466                      33.85122
                       0.00000                      41.56704                      31.64756
                       0.00000                      39.40659                      29.44390
                       0.00000                      37.07331                      27.24024
                       0.00000                      34.56719                      25.03658
                       0.00000                      34.56706                      25.03647
                       0.00000                      31.88823                      22.83292
                       0.00000                      29.03644                      20.62926
                       0.00000                      26.01181                      18.42561
                       0.00000                      22.81434                      16.22195
                       0.00000                      19.44404                      14.01829
                       0.00000                      15.90091                      11.81463
                       0.00000                      12.18493                       9.61097
                       0.00000                       8.29613                       7.40732
                       0.00000                       4.23448                       5.20366
                       0.00000                       0.00000                       3.00000
                       0.00000                      -0.00000                     113.18291
                       3.66717                      -2.11724                     110.97925
                       7.18466                      -4.14806                     108.77560
                      10.55246                      -6.09247                     106.57194
                      13.77059                      -7.95045                     104.36828
                      16.83904                      -9.72202                     102.16462
                      19.75780                     -11.40717                      99.96096
                      22.52689                     -13.00590                      97.75730
                      25.14629                     -14.51822                      95.55364
                      27.61602                     -15.94412                      93.34998
                      29.93606                     -17.28359                      91.14632
                      29.93617                     -17.28366                      91.14622
                      32.10643                     -18.53665                      88.94267
                      34.12711                     -19.70330                      86.73901
                      35.99812                     -20.78352                      84.53535
                      37.71944                     -21.77733                      82.33170
                      39.29108                     -22.68472                      80.12804
                      40.71304                     -23.50569                      77.92438
                      41.98533                     -24.24024                      75.72072
                      43.10793                     -24.88837                      73.51706
                      44.08085                     -25.45009                      71.31340
                      44.90409                     -25.92539                      69.10975
                      45.57766                     -26.31427                      66.90609
                      46.10154                     -26.61673                      64.70243
                      46.47574                     -26.83278                      62.49877
                      46.70026                     -26.96241                      60.29511
                      46.77510                     -27.00562                      58.09145
                      46.70026                     -26.96241                      55.88780
                      46.47574                     -26.83278                      53.68414
                      46.10154                     -26.61673                      51.48048
                      45.57766                     -26.31427                      49.27682
                      44.90409                     -25.92539                      47.07316
                      44.08085                     -25.45009                      44.86951
                      43.10793                     -24.88837                      42.66585
                      41.98533                     -24.24024                      40.46219
                      40.71304                     -23.50569                      38.25853
                      39.29108                     -22.68472                      36.05487
                      37.71944                     -21.77733                      33.85122
                      35.99812                     -20.78352                      31.64756
                      34.12711                     -19.70330                      29.44390
                      32.10643                     -18.53665                      27.24024
                      29.93606                     -17.28359                      25.03658
                      29.93595                     -17.28353                      25.03647
                      27.61602                     -15.94412                      22.83292
                      25.14629                     -14.51822                      20.62926
                      22.52689                     -13.00590                      18.42561
                      19.75780                     -11.40717                      16.22195
                      16.83904                      -9.72202                      14.01829
                      13.77059                      -7.95045                      11.81463
                      10.55246                      -6.09247                       9.61097
                       7.18466                      -4.14806                       7.40732
                       3.66717                      -2.11724                       5.20366
                       0.00000                       0.00000                       3.00000
                      -0.00000                      -0.00000                     113.18291
                      -3.66717                      -2.11724                     110.97925
                      -7.18466                      -4.14806                     108.77560
                     -10.55246                      -6.09247                     106.57194
                     -13.77059                      -7.95045                     104.36828
                     -16.83904                      -9.72202                     102.16462
                     -19.75780                     -11.40717                      99.96096
                     -22.52689                     -13.00590                      97.75730
                     -25.14629                     -14.51822                      95.55364
                     -27.61602                     -15.94412                      93.34998
                     -29.93606                     -17.28359                      91.14632
                     -29.93617                     -17.28366                      91.14622
                     -32.10643                     -18.53665                      88.94267
                     -34.12711                     -19.70330                      86.73901
                     -35.99812                     -20.78352                      84.53535
                     -37.71944                     -21.77733                      82.33170
                     -39.29108                     -22.68472                      80.12804
                     -40.71304                     -23.50569                      77.92438
                     -41.98533                     -24.24024                      75.72072
                     -43.10793                     -24.88837                      73.51706
                     -44.08085                     -25.45009                      71.31340
                     -44.90409                     -25.92539                      69.10975
                     -45.57766                     -26.31427                      66.90609
                     -46.10154                     -26.61673                      64.70243
                     -46.47574                     -26.83278                      62.49877
                     -46.70026                     -26.96241                      60.29511
                     -46.77510                     -27.00562                      58.09145
                     -46.70026                     -26.96241                      55.88780
                     -46.47574                     -26.83278                      53.68414
                     -46.10154                     -26.61673                      51.48048
                     -45.57766                     -26.31427                      49.27682
                     -44.90409                     -25.92539                      47.07316
                     -44.08085                     -25.45009                      44.86951
                     -43.10793                     -24.88837                      42.66585
                     -41.98533                     -24.24024                      40.46219
                     -40.71304                     -23.50569                      38.25853
                     -39.29108                     -22.68472                      36.05487
                     -37.71944                     -21.77733                      33.85122
                     -35.99812                     -20.78352                      31.64756
                     -34.12711                     -19.70330                      29.44390
                     -32.10643                     -18.53665                      27.24024
                     -29.93606                     -17.28359                      25.03658
                     -29.93595                     -17.28353                      25.03647
                     -27.61602                     -15.94412                      22.83292
                     -25.14629                     -14.51822                      20.62926
                     -22.52689                     -13.00590                      18.42561
                     -19.75780                     -11.40717                      16.22195
                     -16.83904                      -9.72202                      14.01829
                     -13.77059                      -7.95045                      11.81463
                     -10.55246                      -6.09247                       9.61097
                      -7.18466                      -4.14806                       7.40732
                      -3.66717                      -2.11724                       5.20366
                       0.00000                       0.00000                       3.00000
                       0.00000                       0.10000                      25.03658
                       0.00000                       6.91341                      25.03656
                       0.00000                      13.82682                      25.03654
                       0.00000                      20.74023                      25.03652
                       0.00000                      27.65365                      25.03649
                       0.00000                      34.56706                      25.03647
                       0.08660                      -0.05000                      25.03658
                       5.98719                      -3.45671                      25.03656
                      11.97438                      -6.91341                      25.03654
                      17.96157                     -10.37012                      25.03652
                      23.94876                     -13.82682                      25.03649
                      29.93595                     -17.28353                      25.03647
                      -0.08660                      -0.05000                      25.03658
                      -5.98719                      -3.45671                      25.03656
                     -11.97438                      -6.91341                      25.03654
                     -17.96157                     -10.37012                      25.03652
                     -23.94876                     -13.82682                      25.03649
                     -29.93595                     -17.28353                      25.03647
                       0.00000                       0.10000                      91.14632
                       0.00000                       6.91346                      91.14631
                       0.00000                      13.82693                      91.14629
                       0.00000                      20.74039                      91.14626
                       0.00000                      27.65385                      91.14624
                       0.00000                      34.56732                      91.14622
                       0.08660                      -0.05000                      91.14632
                       5.98724                      -3.45673                      91.14631
                      11.97447                      -6.91346                      91.14629
                      17.96170                     -10.37020                      91.14626
                      23.94894                     -13.82693                      91.14624
                      29.93617                     -17.28366                      91.14622
                      -0.08660                      -0.05000                      91.14632
                      -5.98724                      -3.45673                      91.14631
                     -11.97447                      -6.91346                      91.14629
                     -17.96170                     -10.37020                      91.14626
                     -23.94894                     -13.82693                      91.14624
                     -29.93617                     -17.28366                      91.14622
        </DataArray>
      </Points>
      <PointData>
        <DataArray type="Float32" Name="TranslationalVelocity" NumberOfComponents="3" format="ascii">
                      -0.00000                       0.00000                       0.00000
                      -7.62706                       0.00000                       0.00000
                     -14.94281                       0.00000                       0.00000
                     -21.94726                       0.00000                       0.00000
                     -28.64039                       0.00000                       0.00000
                     -35.02222                       0.00000                       0.00000
                     -41.09274                       0.00000                       0.00000
                     -46.85194                       0.00000                       0.00000
                     -52.29985                       0.00000                       0.00000
                     -57.43644                       0.00000                       0.00000
                     -62.26172                       0.00000                       0.00000
                     -62.26196                       0.00000                       0.00000
                     -66.77569                       0.00000                       0.00000
                     -70.97836                       0.00000                       0.00000
                     -74.86972                       0.00000                       0.00000
                     -78.44977                       0.00000                       0.00000
                     -81.71851                       0.00000                       0.00000
                     -84.67594                       0.00000                       0.00000
                     -87.32206                       0.00000                       0.00000
                     -89.65688                       0.00000                       0.00000
                     -91.68038                       0.00000                       0.00000
                     -93.39258                       0.00000                       0.00000
                     -94.79347                       0.00000                       0.00000
                     -95.88304                       0.00000                       0.00000
                     -96.66132                       0.00000                       0.00000
                     -97.12828                       0.00000                       0.00000
                     -97.28394                       0.00000                       0.00000
                     -97.12828                       0.00000                       0.00000
                     -96.66132                       0.00000                       0.00000
                     -95.88304                       0.00000                       0.00000
                     -94.79347                       0.00000                       0.00000
                     -93.39258                       0.00000                       0.00000
                     -91.68038                       0.00000                       0.00000
                     -89.65688                       0.00000                       0.00000
                     -87.32206                       0.00000                       0.00000
                     -84.67594                       0.00000                       0.00000
                     -81.71851                       0.00000                       0.00000
                     -78.44977                       0.00000                       0.00000
                     -74.86972                       0.00000                       0.00000
                     -70.97836                       0.00000                       0.00000
                     -66.77569                       0.00000                       0.00000
                     -62.26172                       0.00000                       0.00000
                     -62.26149                       0.00000                       0.00000
                     -57.43644                       0.00000                       0.00000
                     -52.29985                       0.00000                       0.00000
                     -46.85194                       0.00000                       0.00000
                     -41.09274                       0.00000                       0.00000
                     -35.02222                       0.00000                       0.00000
                     -28.64039                       0.00000                       0.00000
                     -21.94726                       0.00000                       0.00000
                     -14.94281                       0.00000                       0.00000
                      -7.62706                       0.00000                       0.00000
                       0.00000                       0.00000                       0.00000
                       0.00000                       0.00000                       0.00000
                       3.81353                       6.60523                       0.00000
                       7.47141                      12.94086                       0.00000
                      10.97363                      19.00688                       0.00000
                      14.32020                      24.80331                       0.00000
                      17.51111                      30.33013                       0.00000
                      20.54637                      35.58735                       0.00000
                      23.42597                      40.57497                       0.00000
                      26.14992                      45.29299                       0.00000
                      28.71822                      49.74141                       0.00000
                      31.13086                      53.92023                       0.00000
                      31.13098                      53.92043                       0.00000
                      33.38784                      57.82944                       0.00000
                      35.48918                      61.46906                       0.00000
                      37.43486                      64.83908                       0.00000
                      39.22488                      67.93949                       0.00000
                      40.85925                      70.77030                       0.00000
                      42.33797                      73.33151                       0.00000
                      43.66103                      75.62312                       0.00000
                      44.82844                      77.64513                       0.00000
                      45.84019                      79.39754                       0.00000
                      46.69629                      80.88035                       0.00000
                      47.39674                      82.09355                       0.00000
                      47.94152                      83.03716                       0.00000
                      48.33066                      83.71116                       0.00000
                      48.56414                      84.11555                       0.00000
                      48.64197                      84.25036                       0.00000
                      48.56414                      84.11555                       0.00000
                      48.33066                      83.71116                       0.00000
                      47.94152                      83.03716                       0.00000
                      47.39674                      82.09355                       0.00000
                      46.69629                      80.88035                       0.00000
                      45.84019                      79.39754                       0.00000
                      44.82844                      77.64513                       0.00000
                      43.66103                      75.62312                       0.00000
                      42.33797                      73.33151                       0.00000
                      40.85925                      70.77030                       0.00000
                      39.22488                      67.93949                       0.00000
                      37.43486                      64.83908                       0.00000
                      35.48918                      61.46906                       0.00000
                      33.38784                      57.82944                       0.00000
                      31.13086                      53.92023                       0.00000
                      31.13074                      53.92003                       0.00000
                      28.71822                      49.74141                       0.00000
                      26.14992                      45.29299                       0.00000
                      23.42597                      40.57497                       0.00000
                      20.54637                      35.58735                       0.00000
                      17.51111                      30.33013                       0.00000
                      14.32020                      24.80331                       0.00000
                      10.97363                      19.00688                       0.00000
                       7.47141                      12.94086                       0.00000
                       3.81353                       6.60523                       0.00000
                       0.00000                       0.00000                       0.00000
                       0.00000                      -0.00000                       0.00000
                       3.81353                      -6.60523                       0.00000
                       7.47141                     -12.94086                       0.00000
                      10.97363                     -19.00688                       0.00000
                      14.32020                     -24.80331                       0.00000
                      17.51111                     -30.33013                       0.00000
                      20.54637                     -35.58735                       0.00000
                      23.42597                     -40.57497                       0.00000
                      26.14992                     -45.29299                       0.00000
                      28.71822                     -49.74141                       0.00000
                      31.13086                     -53.92023                       0.00000
                      31.13098                     -53.92043                       0.00000
                      33.38784                     -57.82944                       0.00000
                      35.48918                     -61.46906                       0.00000
                      37.43486                     -64.83908                       0.00000
                      39.22488                     -67.93949                       0.00000
                      40.85925                     -70.77030                       0.00000
                      42.33797                     -73.33151                       0.00000
                      43.66103                     -75.62312                       0.00000
                      44.82844                     -77.64513                       0.00000
                      45.84019                     -79.39754                       0.00000
                      46.69629                     -80.88035                       0.00000
                      47.39674                     -82.09355                       0.00000